DF-ISE text

Info {
  version   = 1.0
  type      = xyplot
  datasets  = [
    "time"
    "Ch_con_2 OuterVoltage" "Ch_con_2 InnerVoltage" "Ch_con_2 QuasiFermiPotential" "Ch_con_2 DisplacementCurrent" "Ch_con_2 eCurrent"
    "Ch_con_2 hCurrent" "Ch_con_2 TotalCurrent" "Ch_con_2 Charge" "Ls_con OuterVoltage" "Ls_con InnerVoltage"
    "Ls_con QuasiFermiPotential" "Ls_con DisplacementCurrent" "Ls_con eCurrent" "Ls_con hCurrent" "Ls_con TotalCurrent"
    "Ls_con Charge" "Ls_ext_con_1 OuterVoltage" "Ls_ext_con_1 InnerVoltage" "Ls_ext_con_1 QuasiFermiPotential" "Ls_ext_con_1 DisplacementCurrent"
    "Ls_ext_con_1 eCurrent" "Ls_ext_con_1 hCurrent" "Ls_ext_con_1 TotalCurrent" "Ls_ext_con_1 Charge" "Ld_con OuterVoltage"
    "Ld_con InnerVoltage" "Ld_con QuasiFermiPotential" "Ld_con DisplacementCurrent" "Ld_con eCurrent" "Ld_con hCurrent"
    "Ld_con TotalCurrent" "Ld_con Charge" ]
  functions = [
    Time
    OuterVoltage InnerVoltage QuasiFermiPotential DisplacementCurrent eCurrent
    hCurrent TotalCurrent Charge OuterVoltage InnerVoltage
    QuasiFermiPotential DisplacementCurrent eCurrent hCurrent TotalCurrent
    Charge OuterVoltage InnerVoltage QuasiFermiPotential DisplacementCurrent
    eCurrent hCurrent TotalCurrent Charge OuterVoltage
    InnerVoltage QuasiFermiPotential DisplacementCurrent eCurrent hCurrent
    TotalCurrent Charge ]
}

Data {
      0.00000000000000E+00
      0.00000000000000E+00   0.00000000000000E+00   0.00000000000000E+00   0.00000000000000E+00   0.00000000000000E+00
      0.00000000000000E+00   0.00000000000000E+00  -4.91167338748029E-16   0.00000000000000E+00   0.00000000000000E+00
      0.00000000000000E+00   0.00000000000000E+00  -2.45817309175905E-08   3.49888180856911E-28  -2.45817309175905E-08
      3.22415056866653E-16   0.00000000000000E+00   0.00000000000000E+00   0.00000000000000E+00   0.00000000000000E+00
      0.00000000000000E+00   0.00000000000000E+00   0.00000000000000E+00  -1.78733986641767E-16   1.00000000000000E+00
      1.00000000000000E+00   0.00000000000000E+00   0.00000000000000E+00   2.45817309175905E-08   8.38317866255584E-30
      2.45817309175905E-08   3.47537040595864E-16
      1.70000000000000E-02
      1.70000000000000E-02   1.70000000000000E-02   0.00000000000000E+00   0.00000000000000E+00   0.00000000000000E+00
      0.00000000000000E+00   0.00000000000000E+00  -4.84625075613654E-16   0.00000000000000E+00   0.00000000000000E+00
      0.00000000000000E+00   0.00000000000000E+00  -3.85554521818310E-08   2.14223614701779E-28  -3.85554521818310E-08
      3.18724218427297E-16   0.00000000000000E+00   0.00000000000000E+00   0.00000000000000E+00   0.00000000000000E+00
      0.00000000000000E+00   0.00000000000000E+00   0.00000000000000E+00  -1.79003288847442E-16   1.00000000000000E+00
      1.00000000000000E+00   0.00000000000000E+00   0.00000000000000E+00   3.85554521831474E-08   3.64775871067938E-30
      3.85554521831474E-08   3.44957860384286E-16
      3.40000000000000E-02
      3.40000000000000E-02   3.40000000000000E-02   0.00000000000000E+00   0.00000000000000E+00   0.00000000000000E+00
      0.00000000000000E+00   0.00000000000000E+00  -4.78010632843105E-16   0.00000000000000E+00   0.00000000000000E+00
      0.00000000000000E+00   0.00000000000000E+00  -6.01392665744860E-08   1.09994729258905E-28  -6.01392665744860E-08
      3.14957753042541E-16   0.00000000000000E+00   0.00000000000000E+00   0.00000000000000E+00   0.00000000000000E+00
      0.00000000000000E+00   0.00000000000000E+00   0.00000000000000E+00  -1.79258664474478E-16   1.00000000000000E+00
      1.00000000000000E+00   0.00000000000000E+00   0.00000000000000E+00   6.01392665938463E-08   2.35882864910497E-30
      6.01392665938463E-08   3.42369774955992E-16
      5.10000000000000E-02
      5.10000000000000E-02   5.10000000000000E-02   0.00000000000000E+00   0.00000000000000E+00   0.00000000000000E+00
      0.00000000000000E+00   0.00000000000000E+00  -4.71318745041633E-16   0.00000000000000E+00   0.00000000000000E+00
      0.00000000000000E+00   0.00000000000000E+00  -9.32324760853363E-08   6.58227718491743E-29  -9.32324760853363E-08
      3.11114154364744E-16   0.00000000000000E+00   0.00000000000000E+00   0.00000000000000E+00   0.00000000000000E+00
      0.00000000000000E+00   0.00000000000000E+00   0.00000000000000E+00  -1.79500779172206E-16   1.00000000000000E+00
      1.00000000000000E+00   0.00000000000000E+00   0.00000000000000E+00   9.32324761174721E-08   1.10905509202209E-30
      9.32324761174721E-08   3.39770483812620E-16
      6.80000000000000E-02
      6.80000000000000E-02   6.80000000000000E-02   0.00000000000000E+00   0.00000000000000E+00   0.00000000000000E+00
      0.00000000000000E+00   0.00000000000000E+00  -4.64543048605360E-16   0.00000000000000E+00   0.00000000000000E+00
      0.00000000000000E+00   0.00000000000000E+00  -1.43548058457480E-07   3.88936455212150E-29  -1.43548058457480E-07
      3.07191485148596E-16   0.00000000000000E+00   0.00000000000000E+00   0.00000000000000E+00   0.00000000000000E+00
      0.00000000000000E+00   0.00000000000000E+00   0.00000000000000E+00  -1.79730214146941E-16   1.00000000000000E+00
      1.00000000000000E+00   0.00000000000000E+00   0.00000000000000E+00   1.43548058510623E-07   6.87299488614617E-31
      1.43548058510623E-07   3.37157297318625E-16
      8.50000000000000E-02
      8.50000000000000E-02   8.50000000000000E-02   0.00000000000000E+00   0.00000000000000E+00   0.00000000000000E+00
      0.00000000000000E+00   0.00000000000000E+00  -4.57675979898392E-16   0.00000000000000E+00   0.00000000000000E+00
      0.00000000000000E+00   0.00000000000000E+00  -2.19314316986584E-07   2.29676425616484E-29  -2.19314316986584E-07
      3.03187427450056E-16   0.00000000000000E+00   0.00000000000000E+00   0.00000000000000E+00   0.00000000000000E+00
      0.00000000000000E+00   0.00000000000000E+00   0.00000000000000E+00  -1.79947491022996E-16   1.00000000000000E+00
      1.00000000000000E+00   0.00000000000000E+00   0.00000000000000E+00   2.19314317073537E-07   3.39905214802730E-31
      2.19314317073537E-07   3.34527147150089E-16
      1.02000000000000E-01
      1.02000000000000E-01   1.02000000000000E-01   0.00000000000000E+00   0.00000000000000E+00   0.00000000000000E+00
      0.00000000000000E+00   0.00000000000000E+00  -4.50708690206189E-16   0.00000000000000E+00   0.00000000000000E+00
      0.00000000000000E+00   0.00000000000000E+00  -3.32140540825680E-07   1.29817396949143E-29  -3.32140540825680E-07
      2.99099354127519E-16   0.00000000000000E+00   0.00000000000000E+00   0.00000000000000E+00   0.00000000000000E+00
      0.00000000000000E+00   0.00000000000000E+00   0.00000000000000E+00  -1.80153100761348E-16   1.00000000000000E+00
      1.00000000000000E+00   0.00000000000000E+00   0.00000000000000E+00   3.32140540965534E-07   2.12787279242996E-31
      3.32140540965534E-07   3.31876627255519E-16
      1.19000000000000E-01
      1.19000000000000E-01   1.19000000000000E-01   0.00000000000000E+00   0.00000000000000E+00   0.00000000000000E+00
      0.00000000000000E+00   0.00000000000000E+00  -4.43630983144418E-16   0.00000000000000E+00   0.00000000000000E+00
      0.00000000000000E+00   0.00000000000000E+00  -4.98009078925928E-07   8.14242659856348E-30  -4.98009078925928E-07
      2.94924416571617E-16   0.00000000000000E+00   0.00000000000000E+00   0.00000000000000E+00   0.00000000000000E+00
      0.00000000000000E+00   0.00000000000000E+00   0.00000000000000E+00  -1.80347533944988E-16   1.00000000000000E+00
      1.00000000000000E+00   0.00000000000000E+00   0.00000000000000E+00   4.98009079146810E-07   1.52166616165867E-31
      4.98009079146810E-07   3.29202065471191E-16
      1.36000000000000E-01
      1.36000000000000E-01   1.36000000000000E-01   0.00000000000000E+00   0.00000000000000E+00   0.00000000000000E+00
      0.00000000000000E+00   0.00000000000000E+00  -4.36431297353425E-16   0.00000000000000E+00   0.00000000000000E+00
      0.00000000000000E+00   0.00000000000000E+00  -7.38272095778593E-07   4.85959675334647E-30  -7.38272095778593E-07
      2.90659651880028E-16   0.00000000000000E+00   0.00000000000000E+00   0.00000000000000E+00   0.00000000000000E+00
      0.00000000000000E+00   0.00000000000000E+00   0.00000000000000E+00  -1.80531313124638E-16   1.00000000000000E+00
      1.00000000000000E+00   0.00000000000000E+00   0.00000000000000E+00   7.38272095778641E-07   7.16622094889090E-32
      7.38272095778641E-07   3.26499621626654E-16
      1.53000000000000E-01
      1.53000000000000E-01   1.53000000000000E-01   0.00000000000000E+00   0.00000000000000E+00   0.00000000000000E+00
      0.00000000000000E+00   0.00000000000000E+00  -4.29096753702026E-16   0.00000000000000E+00   0.00000000000000E+00
      0.00000000000000E+00   0.00000000000000E+00  -1.08045460030583E-06   3.05370170595076E-30  -1.08045460030583E-06
      2.86302094126550E-16   0.00000000000000E+00   0.00000000000000E+00   0.00000000000000E+00   0.00000000000000E+00
      0.00000000000000E+00   0.00000000000000E+00   0.00000000000000E+00  -1.80705023164584E-16   1.00000000000000E+00
      1.00000000000000E+00   0.00000000000000E+00   0.00000000000000E+00   1.08045460030581E-06   5.11797862690176E-32
      1.08045460030581E-06   3.23765403780936E-16
      1.70000000000000E-01
      1.70000000000000E-01   1.70000000000000E-01   0.00000000000000E+00   0.00000000000000E+00   0.00000000000000E+00
      0.00000000000000E+00   0.00000000000000E+00  -4.21613289743847E-16   0.00000000000000E+00   0.00000000000000E+00
      0.00000000000000E+00   0.00000000000000E+00  -1.55858719977727E-06   1.73892142429481E-30  -1.55858719977727E-06
      2.81848860066229E-16   0.00000000000000E+00   0.00000000000000E+00   0.00000000000000E+00   0.00000000000000E+00
      0.00000000000000E+00   0.00000000000000E+00   0.00000000000000E+00  -1.80869332444520E-16   1.00000000000000E+00
      1.00000000000000E+00   0.00000000000000E+00   0.00000000000000E+00   1.55858719977728E-06   1.83913389671880E-32
      1.55858719977728E-06   3.20995594549153E-16
      1.87000000000000E-01
      1.87000000000000E-01   1.87000000000000E-01   0.00000000000000E+00   0.00000000000000E+00   0.00000000000000E+00
      0.00000000000000E+00   0.00000000000000E+00  -4.13965922282561E-16   0.00000000000000E+00   0.00000000000000E+00
      0.00000000000000E+00   0.00000000000000E+00  -2.21274890043578E-06   1.06349092335994E-30  -2.21274890043578E-06
      2.77297191691171E-16   0.00000000000000E+00   0.00000000000000E+00   0.00000000000000E+00   0.00000000000000E+00
      0.00000000000000E+00   0.00000000000000E+00   0.00000000000000E+00  -1.81025004001124E-16   1.00000000000000E+00
      1.00000000000000E+00   0.00000000000000E+00   0.00000000000000E+00   2.21274890043584E-06   1.23450197679259E-32
      2.21274890043584E-06   3.18186584389187E-16
      2.04000000000000E-01
      2.04000000000000E-01   2.04000000000000E-01   0.00000000000000E+00   0.00000000000000E+00   0.00000000000000E+00
      0.00000000000000E+00   0.00000000000000E+00  -4.06139117805296E-16   0.00000000000000E+00   0.00000000000000E+00
      0.00000000000000E+00   0.00000000000000E+00  -3.08769413199690E-06   6.60960724387027E-31  -3.08769413199690E-06
      2.72644416608515E-16   0.00000000000000E+00   0.00000000000000E+00   0.00000000000000E+00   0.00000000000000E+00
      0.00000000000000E+00   0.00000000000000E+00   0.00000000000000E+00  -1.81172888710073E-16   1.00000000000000E+00
      1.00000000000000E+00   0.00000000000000E+00   0.00000000000000E+00   3.08769413199707E-06   5.02719619755982E-33
      3.08769413199707E-06   3.15335101835798E-16
      2.21000000000000E-01
      2.21000000000000E-01   2.21000000000000E-01   0.00000000000000E+00   0.00000000000000E+00   0.00000000000000E+00
      0.00000000000000E+00   0.00000000000000E+00  -3.98117254411920E-16   0.00000000000000E+00   0.00000000000000E+00
      0.00000000000000E+00   0.00000000000000E+00  -4.23058070857840E-06   4.01486317161501E-31  -4.23058070857840E-06
      2.67887825550723E-16   0.00000000000000E+00   0.00000000000000E+00   0.00000000000000E+00   0.00000000000000E+00
      0.00000000000000E+00   0.00000000000000E+00   0.00000000000000E+00  -1.81313903305623E-16   1.00000000000000E+00
      1.00000000000000E+00   0.00000000000000E+00   0.00000000000000E+00   4.23058070857804E-06   4.75899293341060E-33
      4.23058070857804E-06   3.12438334323828E-16
      2.38000000000000E-01
      2.38000000000000E-01   2.38000000000000E-01   0.00000000000000E+00   0.00000000000000E+00   0.00000000000000E+00
      0.00000000000000E+00   0.00000000000000E+00  -3.89885053450049E-16   0.00000000000000E+00   0.00000000000000E+00
      0.00000000000000E+00   0.00000000000000E+00  -5.68827682044943E-06   2.61159996162075E-31  -5.68827682044943E-06
      2.63024467894577E-16   0.00000000000000E+00   0.00000000000000E+00   0.00000000000000E+00   0.00000000000000E+00
      0.00000000000000E+00   0.00000000000000E+00   0.00000000000000E+00  -1.81448991402495E-16   1.00000000000000E+00
      1.00000000000000E+00   0.00000000000000E+00   0.00000000000000E+00   5.68827682044941E-06   2.47167134546374E-33
      5.68827682044941E-06   3.09494011719417E-16
      2.55000000000000E-01
      2.55000000000000E-01   2.55000000000000E-01   0.00000000000000E+00   0.00000000000000E+00   0.00000000000000E+00
      0.00000000000000E+00   0.00000000000000E+00  -3.81427848257533E-16   0.00000000000000E+00   0.00000000000000E+00
      0.00000000000000E+00   0.00000000000000E+00  -7.50499038662777E-06   1.49620913220639E-31  -7.50499038662777E-06
      2.58050923722967E-16   0.00000000000000E+00   0.00000000000000E+00   0.00000000000000E+00   0.00000000000000E+00
      0.00000000000000E+00   0.00000000000000E+00   0.00000000000000E+00  -1.81579078785491E-16   1.00000000000000E+00
      1.00000000000000E+00   0.00000000000000E+00   0.00000000000000E+00   7.50499038662769E-06   2.03814455417092E-33
      7.50499038662769E-06   3.06500418578755E-16
      2.72000000000000E-01
      2.72000000000000E-01   2.72000000000000E-01   0.00000000000000E+00   0.00000000000000E+00   0.00000000000000E+00
      0.00000000000000E+00   0.00000000000000E+00  -3.72731681607286E-16   0.00000000000000E+00   0.00000000000000E+00
      0.00000000000000E+00   0.00000000000000E+00  -9.72067764985986E-06   1.18632818083500E-31  -9.72067764985986E-06
      2.52963158827137E-16   0.00000000000000E+00   0.00000000000000E+00   0.00000000000000E+00   0.00000000000000E+00
      0.00000000000000E+00   0.00000000000000E+00   0.00000000000000E+00  -1.81705045709177E-16   1.00000000000000E+00
      1.00000000000000E+00   0.00000000000000E+00   0.00000000000000E+00   9.72067764986010E-06   7.53644772385793E-34
      9.72067764986010E-06   3.03456328880690E-16
      2.89000000000000E-01
      2.89000000000000E-01   2.89000000000000E-01   0.00000000000000E+00   0.00000000000000E+00   0.00000000000000E+00
      0.00000000000000E+00   0.00000000000000E+00  -3.63783160157362E-16   0.00000000000000E+00   0.00000000000000E+00
      0.00000000000000E+00   0.00000000000000E+00  -1.23707546895402E-05   8.43236770234807E-32  -1.23707546895402E-05
      2.47756502409133E-16   0.00000000000000E+00   0.00000000000000E+00   0.00000000000000E+00   0.00000000000000E+00
      0.00000000000000E+00   0.00000000000000E+00   0.00000000000000E+00  -1.81827716079284E-16   1.00000000000000E+00
      1.00000000000000E+00   0.00000000000000E+00   0.00000000000000E+00   1.23707546895405E-05   5.15715593262563E-34
      1.23707546895405E-05   3.00360850418964E-16
      3.06000000000000E-01
      3.06000000000000E-01   3.06000000000000E-01   0.00000000000000E+00   0.00000000000000E+00   0.00000000000000E+00
      0.00000000000000E+00   0.00000000000000E+00  -3.54569075863287E-16   0.00000000000000E+00   0.00000000000000E+00
      0.00000000000000E+00   0.00000000000000E+00  -1.54869984603022E-05   5.75603547841289E-32  -1.54869984603022E-05
      2.42425675109777E-16   0.00000000000000E+00   0.00000000000000E+00   0.00000000000000E+00   0.00000000000000E+00
      0.00000000000000E+00   0.00000000000000E+00   0.00000000000000E+00  -1.81947837938092E-16   1.00000000000000E+00
      1.00000000000000E+00   0.00000000000000E+00   0.00000000000000E+00   1.54869984603023E-05   2.81514796698719E-34
      1.54869984603023E-05   2.97213208100784E-16
      3.23000000000000E-01
      3.23000000000000E-01   3.23000000000000E-01   0.00000000000000E+00   0.00000000000000E+00   0.00000000000000E+00
      0.00000000000000E+00   0.00000000000000E+00  -3.45076068593912E-16   0.00000000000000E+00   0.00000000000000E+00
      0.00000000000000E+00   0.00000000000000E+00  -1.90991236424300E-05   3.52946088825035E-32  -1.90991236424300E-05
      2.36965050128199E-16   0.00000000000000E+00   0.00000000000000E+00   0.00000000000000E+00   0.00000000000000E+00
      0.00000000000000E+00   0.00000000000000E+00   0.00000000000000E+00  -1.82066107346786E-16   1.00000000000000E+00
      1.00000000000000E+00   0.00000000000000E+00   0.00000000000000E+00   1.90991236424294E-05   1.28861131353171E-34
      1.90991236424294E-05   2.94012504702162E-16
      3.40000000000000E-01
      3.40000000000000E-01   3.40000000000000E-01   0.00000000000000E+00   0.00000000000000E+00   0.00000000000000E+00
      0.00000000000000E+00   0.00000000000000E+00  -3.35290238664243E-16   0.00000000000000E+00   0.00000000000000E+00
      0.00000000000000E+00   0.00000000000000E+00  -2.32368970425719E-05   2.61460760458071E-32  -2.32368970425719E-05
      2.31368959470863E-16   0.00000000000000E+00   0.00000000000000E+00   0.00000000000000E+00   0.00000000000000E+00
      0.00000000000000E+00   0.00000000000000E+00   0.00000000000000E+00  -1.82183184851750E-16   1.00000000000000E+00
      1.00000000000000E+00   0.00000000000000E+00   0.00000000000000E+00   2.32368970425716E-05   9.15859074999044E-35
      2.32368970425716E-05   2.90757475088360E-16
      3.57000000000000E-01
      3.57000000000000E-01   3.57000000000000E-01   0.00000000000000E+00   0.00000000000000E+00   0.00000000000000E+00
      0.00000000000000E+00   0.00000000000000E+00  -3.25197218070820E-16   0.00000000000000E+00   0.00000000000000E+00
      0.00000000000000E+00   0.00000000000000E+00  -2.79309389737583E-05   1.85318578428790E-32  -2.79309389737583E-05
      2.25632102407741E-16   0.00000000000000E+00   0.00000000000000E+00   0.00000000000000E+00   0.00000000000000E+00
      0.00000000000000E+00   0.00000000000000E+00   0.00000000000000E+00  -1.82299733943686E-16   1.00000000000000E+00
      1.00000000000000E+00   0.00000000000000E+00   0.00000000000000E+00   2.79309389737586E-05   4.83387982437447E-35
      2.79309389737586E-05   2.87446345782336E-16
      3.74000000000000E-01
      3.74000000000000E-01   3.74000000000000E-01   0.00000000000000E+00   0.00000000000000E+00   0.00000000000000E+00
      0.00000000000000E+00   0.00000000000000E+00  -3.14781403653332E-16   0.00000000000000E+00   0.00000000000000E+00
      0.00000000000000E+00   0.00000000000000E+00  -3.32166953608277E-05   1.31951281521787E-32  -3.32166953608277E-05
      2.19749894565003E-16   0.00000000000000E+00   0.00000000000000E+00   0.00000000000000E+00   0.00000000000000E+00
      0.00000000000000E+00   0.00000000000000E+00   0.00000000000000E+00  -1.82416406207252E-16   1.00000000000000E+00
      1.00000000000000E+00   0.00000000000000E+00   0.00000000000000E+00   3.32166953608285E-05   3.20077814181691E-35
      3.32166953608285E-05   2.84076469408172E-16
      3.91000000000000E-01
      3.91000000000000E-01   3.91000000000000E-01   0.00000000000000E+00   0.00000000000000E+00   0.00000000000000E+00
      0.00000000000000E+00   0.00000000000000E+00  -3.04026533656031E-16   0.00000000000000E+00   0.00000000000000E+00
      0.00000000000000E+00   0.00000000000000E+00  -3.91339225671736E-05   8.96875913135673E-33  -3.91339225671736E-05
      2.13719001941760E-16   0.00000000000000E+00   0.00000000000000E+00   0.00000000000000E+00   0.00000000000000E+00
      0.00000000000000E+00   0.00000000000000E+00   0.00000000000000E+00  -1.82533906102074E-16   1.00000000000000E+00
      1.00000000000000E+00   0.00000000000000E+00   0.00000000000000E+00   3.91339225671740E-05   1.81447542161368E-35
      3.91339225671740E-05   2.80644281871862E-16
      4.08000000000000E-01
      4.08000000000000E-01   4.08000000000000E-01   0.00000000000000E+00   0.00000000000000E+00   0.00000000000000E+00
      0.00000000000000E+00   0.00000000000000E+00  -2.92915731861153E-16   0.00000000000000E+00   0.00000000000000E+00
      0.00000000000000E+00   0.00000000000000E+00  -4.57277220421822E-05   7.75395304713769E-33  -4.57277220421822E-05
      2.07537673919466E-16   0.00000000000000E+00   0.00000000000000E+00   0.00000000000000E+00   0.00000000000000E+00
      0.00000000000000E+00   0.00000000000000E+00   0.00000000000000E+00  -1.82652989645541E-16   1.00000000000000E+00
      1.00000000000000E+00   0.00000000000000E+00   0.00000000000000E+00   4.57277220421812E-05   1.35460276788840E-35
      4.57277220421812E-05   2.77145133791799E-16
      4.25000000000000E-01
      4.25000000000000E-01   4.25000000000000E-01   0.00000000000000E+00   0.00000000000000E+00   0.00000000000000E+00
      0.00000000000000E+00   0.00000000000000E+00  -2.81431510268726E-16   0.00000000000000E+00   0.00000000000000E+00
      0.00000000000000E+00   0.00000000000000E+00  -5.30490178909317E-05   5.63738800506676E-33  -5.30490178909317E-05
      2.01205804992456E-16   0.00000000000000E+00   0.00000000000000E+00   0.00000000000000E+00   0.00000000000000E+00
      0.00000000000000E+00   0.00000000000000E+00   0.00000000000000E+00  -1.82774410313379E-16   1.00000000000000E+00
      1.00000000000000E+00   0.00000000000000E+00   0.00000000000000E+00   5.30490178909310E-05   1.11319580375975E-35
      5.30490178909310E-05   2.73573151550181E-16
      4.42000000000000E-01
      4.42000000000000E-01   4.42000000000000E-01   0.00000000000000E+00   0.00000000000000E+00   0.00000000000000E+00
      0.00000000000000E+00   0.00000000000000E+00  -2.69554604105804E-16   0.00000000000000E+00   0.00000000000000E+00
      0.00000000000000E+00   0.00000000000000E+00  -6.11641331975872E-05   4.51719081997318E-33  -6.11641331975872E-05
      1.94726556234743E-16   0.00000000000000E+00   0.00000000000000E+00   0.00000000000000E+00   0.00000000000000E+00
      0.00000000000000E+00   0.00000000000000E+00   0.00000000000000E+00  -1.82899118512723E-16   1.00000000000000E+00
      1.00000000000000E+00   0.00000000000000E+00   0.00000000000000E+00   6.11641331975871E-05   7.12368005320076E-36
      6.11641331975871E-05   2.69920350603366E-16
      4.59000000000000E-01
      4.59000000000000E-01   4.59000000000000E-01   0.00000000000000E+00   0.00000000000000E+00   0.00000000000000E+00
      0.00000000000000E+00   0.00000000000000E+00  -2.57260978791262E-16   0.00000000000000E+00   0.00000000000000E+00
      0.00000000000000E+00   0.00000000000000E+00  -7.01683037872655E-05   4.88548471235473E-33  -7.01683037872655E-05
      1.88107176834844E-16   0.00000000000000E+00   0.00000000000000E+00   0.00000000000000E+00   0.00000000000000E+00
      0.00000000000000E+00   0.00000000000000E+00   0.00000000000000E+00  -1.83028211000512E-16   1.00000000000000E+00
      1.00000000000000E+00   0.00000000000000E+00   0.00000000000000E+00   7.01683037872642E-05   4.35264133407871E-36
      7.01683037872642E-05   2.66175344689585E-16
      4.76000000000000E-01
      4.76000000000000E-01   4.76000000000000E-01   0.00000000000000E+00   0.00000000000000E+00   0.00000000000000E+00
      0.00000000000000E+00   0.00000000000000E+00  -2.44599108416861E-16   0.00000000000000E+00   0.00000000000000E+00
      0.00000000000000E+00   0.00000000000000E+00  -7.98363689564032E-05   3.94916741746386E-33  -7.98363689564032E-05
      1.81332787413662E-16   0.00000000000000E+00   0.00000000000000E+00   0.00000000000000E+00   0.00000000000000E+00
      0.00000000000000E+00   0.00000000000000E+00   0.00000000000000E+00  -1.83160667981286E-16   1.00000000000000E+00
      1.00000000000000E+00   0.00000000000000E+00   0.00000000000000E+00   7.98363689564034E-05   3.48725291843662E-36
      7.98363689564034E-05   2.62351342178389E-16
      4.93000000000000E-01
      4.93000000000000E-01   4.93000000000000E-01   0.00000000000000E+00   0.00000000000000E+00   0.00000000000000E+00
      0.00000000000000E+00   0.00000000000000E+00  -2.31618723753339E-16   0.00000000000000E+00   0.00000000000000E+00
      0.00000000000000E+00   0.00000000000000E+00  -8.98498688796330E-05   3.30019892568252E-33  -8.98498688796330E-05
      1.74354980858072E-16   0.00000000000000E+00   0.00000000000000E+00   0.00000000000000E+00   0.00000000000000E+00
      0.00000000000000E+00   0.00000000000000E+00   0.00000000000000E+00  -1.83293507613768E-16   1.00000000000000E+00
      1.00000000000000E+00   0.00000000000000E+00   0.00000000000000E+00   8.98498688798612E-05   1.53185281689350E-36
      8.98498688798612E-05   2.58471434776503E-16
      5.10000000000000E-01
      5.10000000000000E-01   5.10000000000000E-01   0.00000000000000E+00   0.00000000000000E+00   0.00000000000000E+00
      0.00000000000000E+00   0.00000000000000E+00  -2.18249422433414E-16   0.00000000000000E+00   0.00000000000000E+00
      0.00000000000000E+00   0.00000000000000E+00  -1.00547104205158E-04   2.42169623793158E-33  -1.00547104205158E-04
      1.67224409122635E-16   0.00000000000000E+00   0.00000000000000E+00   0.00000000000000E+00   0.00000000000000E+00
      0.00000000000000E+00   0.00000000000000E+00   0.00000000000000E+00  -1.83431633732361E-16   1.00000000000000E+00
      1.00000000000000E+00   0.00000000000000E+00   0.00000000000000E+00   1.00547104205183E-04   1.36219607617772E-36
      1.00547104205183E-04   2.54504575590963E-16
      5.27000000000000E-01
      5.27000000000000E-01   5.27000000000000E-01   0.00000000000000E+00   0.00000000000000E+00   0.00000000000000E+00
      0.00000000000000E+00   0.00000000000000E+00  -2.04469392721481E-16   0.00000000000000E+00   0.00000000000000E+00
      0.00000000000000E+00   0.00000000000000E+00  -1.11984445048799E-04   2.19744429786802E-33  -1.11984445048799E-04
      1.59949183065124E-16   0.00000000000000E+00   0.00000000000000E+00   0.00000000000000E+00   0.00000000000000E+00
      0.00000000000000E+00   0.00000000000000E+00   0.00000000000000E+00  -1.83573653562413E-16   1.00000000000000E+00
      1.00000000000000E+00   0.00000000000000E+00   0.00000000000000E+00   1.11984445048798E-04   9.16237521492259E-37
      1.11984445048798E-04   2.50441227185471E-16
      5.44000000000000E-01
      5.44000000000000E-01   5.44000000000000E-01   0.00000000000000E+00   0.00000000000000E+00   0.00000000000000E+00
      0.00000000000000E+00   0.00000000000000E+00  -1.90284592382297E-16   0.00000000000000E+00   0.00000000000000E+00
      0.00000000000000E+00   0.00000000000000E+00  -1.24148335995458E-04   1.47589523407874E-33  -1.24148335995458E-04
      1.52538712665420E-16   0.00000000000000E+00   0.00000000000000E+00   0.00000000000000E+00   0.00000000000000E+00
      0.00000000000000E+00   0.00000000000000E+00   0.00000000000000E+00  -1.83720282043082E-16   1.00000000000000E+00
      1.00000000000000E+00   0.00000000000000E+00   0.00000000000000E+00   1.24148335995459E-04   5.66276072434934E-37
      1.24148335995459E-04   2.46277350857936E-16
      5.61000000000000E-01
      5.61000000000000E-01   5.61000000000000E-01   0.00000000000000E+00   0.00000000000000E+00   0.00000000000000E+00
      0.00000000000000E+00   0.00000000000000E+00  -1.75702268982535E-16   0.00000000000000E+00   0.00000000000000E+00
      0.00000000000000E+00   0.00000000000000E+00  -1.37016050584416E-04   1.35165183291692E-33  -1.37016050584416E-04
      1.44999274022846E-16   0.00000000000000E+00   0.00000000000000E+00   0.00000000000000E+00   0.00000000000000E+00
      0.00000000000000E+00   0.00000000000000E+00   0.00000000000000E+00  -1.83871773231203E-16   1.00000000000000E+00
      1.00000000000000E+00   0.00000000000000E+00   0.00000000000000E+00   1.37016050584414E-04   5.76814784229774E-37
      1.37016050584414E-04   2.42009824395907E-16
      5.78000000000000E-01
      5.78000000000000E-01   5.78000000000000E-01   0.00000000000000E+00   0.00000000000000E+00   0.00000000000000E+00
      0.00000000000000E+00   0.00000000000000E+00  -1.60731845661492E-16   0.00000000000000E+00   0.00000000000000E+00
      0.00000000000000E+00   0.00000000000000E+00  -1.50558533722778E-04   1.22591537286499E-33  -1.50558533722778E-04
      1.37337081034728E-16   0.00000000000000E+00   0.00000000000000E+00   0.00000000000000E+00   0.00000000000000E+00
      0.00000000000000E+00   0.00000000000000E+00   0.00000000000000E+00  -1.84028236592691E-16   1.00000000000000E+00
      1.00000000000000E+00   0.00000000000000E+00   0.00000000000000E+00   1.50558533722781E-04   2.74269338524541E-37
      1.50558533722781E-04   2.37636376403388E-16
      5.95000000000000E-01
      5.95000000000000E-01   5.95000000000000E-01   0.00000000000000E+00   0.00000000000000E+00   0.00000000000000E+00
      0.00000000000000E+00   0.00000000000000E+00  -1.45384679231352E-16   0.00000000000000E+00   0.00000000000000E+00
      0.00000000000000E+00   0.00000000000000E+00  -1.64742041589539E-04   8.82106058429166E-34  -1.64742041589539E-04
      1.29558702239391E-16   0.00000000000000E+00   0.00000000000000E+00   0.00000000000000E+00   0.00000000000000E+00
      0.00000000000000E+00   0.00000000000000E+00   0.00000000000000E+00  -1.84189703478653E-16   1.00000000000000E+00
      1.00000000000000E+00   0.00000000000000E+00   0.00000000000000E+00   1.64742041589538E-04   2.58053077995113E-37
      1.64742041589538E-04   2.33155666505973E-16
      6.12000000000000E-01
      6.12000000000000E-01   6.12000000000000E-01   0.00000000000000E+00   0.00000000000000E+00   0.00000000000000E+00