DF-ISE text

Info {
  version   = 1.0
  type      = xyplot
  datasets  = [
    "time"
    "Ch_con_2 OuterVoltage" "Ch_con_2 InnerVoltage" "Ch_con_2 QuasiFermiPotential" "Ch_con_2 DisplacementCurrent" "Ch_con_2 eCurrent"
    "Ch_con_2 hCurrent" "Ch_con_2 TotalCurrent" "Ch_con_2 Charge" "Ls_con OuterVoltage" "Ls_con InnerVoltage"
    "Ls_con QuasiFermiPotential" "Ls_con DisplacementCurrent" "Ls_con eCurrent" "Ls_con hCurrent" "Ls_con TotalCurrent"
    "Ls_con Charge" "Ls_ext_con_1 OuterVoltage" "Ls_ext_con_1 InnerVoltage" "Ls_ext_con_1 QuasiFermiPotential" "Ls_ext_con_1 DisplacementCurrent"
    "Ls_ext_con_1 eCurrent" "Ls_ext_con_1 hCurrent" "Ls_ext_con_1 TotalCurrent" "Ls_ext_con_1 Charge" "Ld_con OuterVoltage"
    "Ld_con InnerVoltage" "Ld_con QuasiFermiPotential" "Ld_con DisplacementCurrent" "Ld_con eCurrent" "Ld_con hCurrent"
    "Ld_con TotalCurrent" "Ld_con Charge" ]
  functions = [
    Time
    OuterVoltage InnerVoltage QuasiFermiPotential DisplacementCurrent eCurrent
    hCurrent TotalCurrent Charge OuterVoltage InnerVoltage
    QuasiFermiPotential DisplacementCurrent eCurrent hCurrent TotalCurrent
    Charge OuterVoltage InnerVoltage QuasiFermiPotential DisplacementCurrent
    eCurrent hCurrent TotalCurrent Charge OuterVoltage
    InnerVoltage QuasiFermiPotential DisplacementCurrent eCurrent hCurrent
    TotalCurrent Charge ]
}

Data {
      0.00000000000000E+00
      0.00000000000000E+00   0.00000000000000E+00   0.00000000000000E+00   0.00000000000000E+00   0.00000000000000E+00
      0.00000000000000E+00   0.00000000000000E+00  -6.21665420071460E-16   0.00000000000000E+00   0.00000000000000E+00
      0.00000000000000E+00   0.00000000000000E+00  -2.06381577314422E-05   1.42160813147657E-29  -2.06381577314422E-05
      4.94519068480036E-16   0.00000000000000E+00   0.00000000000000E+00   0.00000000000000E+00   0.00000000000000E+00
      0.00000000000000E+00   0.00000000000000E+00   0.00000000000000E+00  -3.24201076468019E-16   1.00000000000000E+00
      1.00000000000000E+00   0.00000000000000E+00   0.00000000000000E+00   2.06381577314422E-05   4.26071036143935E-30
      2.06381577314422E-05   4.52131958808777E-16
      1.70000000000000E-02
      1.70000000000000E-02   1.70000000000000E-02   0.00000000000000E+00   0.00000000000000E+00   0.00000000000000E+00
      0.00000000000000E+00   0.00000000000000E+00  -6.12044127554464E-16   0.00000000000000E+00   0.00000000000000E+00
      0.00000000000000E+00   0.00000000000000E+00  -2.37004266291821E-05   9.15939601683480E-30  -2.37004266291821E-05
      4.89065786716039E-16   0.00000000000000E+00   0.00000000000000E+00   0.00000000000000E+00   0.00000000000000E+00
      0.00000000000000E+00   0.00000000000000E+00   0.00000000000000E+00  -3.24226971730111E-16   1.00000000000000E+00
      1.00000000000000E+00   0.00000000000000E+00   0.00000000000000E+00   2.37004266291825E-05   2.60278361420882E-30
      2.37004266291825E-05   4.48105375947611E-16
      3.40000000000000E-02
      3.40000000000000E-02   3.40000000000000E-02   0.00000000000000E+00   0.00000000000000E+00   0.00000000000000E+00
      0.00000000000000E+00   0.00000000000000E+00  -6.02336577360157E-16   0.00000000000000E+00   0.00000000000000E+00
      0.00000000000000E+00   0.00000000000000E+00  -2.70096748260696E-05   6.61562327330639E-30  -2.70096748260696E-05
      4.83566688302238E-16   0.00000000000000E+00   0.00000000000000E+00   0.00000000000000E+00   0.00000000000000E+00
      0.00000000000000E+00   0.00000000000000E+00   0.00000000000000E+00  -3.24254614417867E-16   1.00000000000000E+00
      1.00000000000000E+00   0.00000000000000E+00   0.00000000000000E+00   2.70096748260892E-05   1.68891886136380E-30
      2.70096748260892E-05   4.44049408848798E-16
      5.10000000000000E-02
      5.10000000000000E-02   5.10000000000000E-02   0.00000000000000E+00   0.00000000000000E+00   0.00000000000000E+00
      0.00000000000000E+00   0.00000000000000E+00  -5.92540953728047E-16   0.00000000000000E+00   0.00000000000000E+00
      0.00000000000000E+00   0.00000000000000E+00  -3.05636590458834E-05   3.31627043652458E-30  -3.05636590458834E-05
      4.78019630016324E-16   0.00000000000000E+00   0.00000000000000E+00   0.00000000000000E+00   0.00000000000000E+00
      0.00000000000000E+00   0.00000000000000E+00   0.00000000000000E+00  -3.24283948884703E-16   1.00000000000000E+00
      1.00000000000000E+00   0.00000000000000E+00   0.00000000000000E+00   3.05636590459013E-05   1.11237364504694E-30
      3.05636590459013E-05   4.39964251903717E-16
      6.80000000000000E-02
      6.80000000000000E-02   6.80000000000000E-02   0.00000000000000E+00   0.00000000000000E+00   0.00000000000000E+00
      0.00000000000000E+00   0.00000000000000E+00  -5.82655225363537E-16   0.00000000000000E+00   0.00000000000000E+00
      0.00000000000000E+00   0.00000000000000E+00  -3.43599210132564E-05   2.07248970605437E-30  -3.43599210132564E-05
      4.72422241475039E-16   0.00000000000000E+00   0.00000000000000E+00   0.00000000000000E+00   0.00000000000000E+00
      0.00000000000000E+00   0.00000000000000E+00   0.00000000000000E+00  -3.24314917682286E-16   1.00000000000000E+00
      1.00000000000000E+00   0.00000000000000E+00   0.00000000000000E+00   3.43599210132763E-05   5.63919477451896E-31
      3.43599210132763E-05   4.35850103643425E-16
      8.50000000000000E-02
      8.50000000000000E-02   8.50000000000000E-02   0.00000000000000E+00   0.00000000000000E+00   0.00000000000000E+00
      0.00000000000000E+00   0.00000000000000E+00  -5.72677086607349E-16   0.00000000000000E+00   0.00000000000000E+00
      0.00000000000000E+00   0.00000000000000E+00  -3.83961397432867E-05   1.44481113892787E-30  -3.83961397432867E-05
      4.66771928085243E-16   0.00000000000000E+00   0.00000000000000E+00   0.00000000000000E+00   0.00000000000000E+00
      0.00000000000000E+00   0.00000000000000E+00   0.00000000000000E+00  -3.24347462995029E-16   1.00000000000000E+00
      1.00000000000000E+00   0.00000000000000E+00   0.00000000000000E+00   3.83961397433124E-05   4.50488585821103E-31
      3.83961397433124E-05   4.31707119909184E-16
      1.02000000000000E-01
      1.02000000000000E-01   1.02000000000000E-01   0.00000000000000E+00   0.00000000000000E+00   0.00000000000000E+00
      0.00000000000000E+00   0.00000000000000E+00  -5.62603921334941E-16   0.00000000000000E+00   0.00000000000000E+00
      0.00000000000000E+00   0.00000000000000E+00  -4.26704407915960E-05   8.36420516716067E-31  -4.26704407915960E-05
      4.61065888323971E-16   0.00000000000000E+00   0.00000000000000E+00   0.00000000000000E+00   0.00000000000000E+00
      0.00000000000000E+00   0.00000000000000E+00   0.00000000000000E+00  -3.24381531413118E-16   1.00000000000000E+00
      1.00000000000000E+00   0.00000000000000E+00   0.00000000000000E+00   4.26704407916315E-05   2.16072543506883E-31
      4.26704407916315E-05   4.27535377188662E-16
      1.19000000000000E-01
      1.19000000000000E-01   1.19000000000000E-01   0.00000000000000E+00   0.00000000000000E+00   0.00000000000000E+00
      0.00000000000000E+00   0.00000000000000E+00  -5.52432774919278E-16   0.00000000000000E+00   0.00000000000000E+00
      0.00000000000000E+00   0.00000000000000E+00  -4.71816803090730E-05   6.27099291347175E-31  -4.71816803090730E-05
      4.55301109111376E-16   0.00000000000000E+00   0.00000000000000E+00   0.00000000000000E+00   0.00000000000000E+00
      0.00000000000000E+00   0.00000000000000E+00   0.00000000000000E+00  -3.24417073651460E-16   1.00000000000000E+00
      1.00000000000000E+00   0.00000000000000E+00   0.00000000000000E+00   4.71816803091216E-05   1.40860209629883E-31
      4.71816803091216E-05   4.23334859970517E-16
      1.36000000000000E-01
      1.36000000000000E-01   1.36000000000000E-01   0.00000000000000E+00   0.00000000000000E+00   0.00000000000000E+00
      0.00000000000000E+00   0.00000000000000E+00  -5.42160326220443E-16   0.00000000000000E+00   0.00000000000000E+00
      0.00000000000000E+00   0.00000000000000E+00  -5.19296457918383E-05   3.07821364452666E-31  -5.19296457918383E-05
      4.49474389954023E-16   0.00000000000000E+00   0.00000000000000E+00   0.00000000000000E+00   0.00000000000000E+00
      0.00000000000000E+00   0.00000000000000E+00   0.00000000000000E+00  -3.24454048406560E-16   1.00000000000000E+00
      1.00000000000000E+00   0.00000000000000E+00   0.00000000000000E+00   5.19296457919026E-05   9.61146155645690E-32
      5.19296457919026E-05   4.19105420457775E-16
      1.53000000000000E-01
      1.53000000000000E-01   1.53000000000000E-01   0.00000000000000E+00   0.00000000000000E+00   0.00000000000000E+00
      0.00000000000000E+00   0.00000000000000E+00  -5.31782858606802E-16   0.00000000000000E+00   0.00000000000000E+00
      0.00000000000000E+00   0.00000000000000E+00  -5.69152794527342E-05   2.41502490850761E-31  -5.69152794527342E-05
      4.43582342317919E-16   0.00000000000000E+00   0.00000000000000E+00   0.00000000000000E+00   0.00000000000000E+00
      0.00000000000000E+00   0.00000000000000E+00   0.00000000000000E+00  -3.24492421746243E-16   1.00000000000000E+00
      1.00000000000000E+00   0.00000000000000E+00   0.00000000000000E+00   5.69152794528189E-05   6.56805921685574E-32
      5.69152794528189E-05   4.14846758558441E-16
      1.70000000000000E-01
      1.70000000000000E-01   1.70000000000000E-01   0.00000000000000E+00   0.00000000000000E+00   0.00000000000000E+00
      0.00000000000000E+00   0.00000000000000E+00  -5.21296244833402E-16   0.00000000000000E+00   0.00000000000000E+00
      0.00000000000000E+00   0.00000000000000E+00  -6.21408359404195E-05   1.57681438549295E-31  -6.21408359404195E-05
      4.37621414189696E-16   0.00000000000000E+00   0.00000000000000E+00   0.00000000000000E+00   0.00000000000000E+00
      0.00000000000000E+00   0.00000000000000E+00   0.00000000000000E+00  -3.24532169534943E-16   1.00000000000000E+00
      1.00000000000000E+00   0.00000000000000E+00   0.00000000000000E+00   6.21408359405254E-05   3.50068682390207E-32
      6.21408359405254E-05   4.10558391235796E-16
      1.87000000000000E-01
      1.87000000000000E-01   1.87000000000000E-01   0.00000000000000E+00   0.00000000000000E+00   0.00000000000000E+00
      0.00000000000000E+00   0.00000000000000E+00  -5.10695953702613E-16   0.00000000000000E+00   0.00000000000000E+00
      0.00000000000000E+00   0.00000000000000E+00  -6.76100789269820E-05   1.01417444457802E-31  -6.76100789269820E-05
      4.31587907864764E-16   0.00000000000000E+00   0.00000000000000E+00   0.00000000000000E+00   0.00000000000000E+00
      0.00000000000000E+00   0.00000000000000E+00   0.00000000000000E+00  -3.24573279040341E-16   1.00000000000000E+00
      1.00000000000000E+00   0.00000000000000E+00   0.00000000000000E+00   6.76100789271158E-05   2.30933233426885E-32
      6.76100789271158E-05   4.06239651164322E-16
      2.04000000000000E-01
      2.04000000000000E-01   2.04000000000000E-01   0.00000000000000E+00   0.00000000000000E+00   0.00000000000000E+00
      0.00000000000000E+00   0.00000000000000E+00  -4.99977020889948E-16   0.00000000000000E+00   0.00000000000000E+00
      0.00000000000000E+00   0.00000000000000E+00  -7.33284319535671E-05   5.48923135602654E-32  -7.33284319535671E-05
      4.25478005028995E-16   0.00000000000000E+00   0.00000000000000E+00   0.00000000000000E+00   0.00000000000000E+00
      0.00000000000000E+00   0.00000000000000E+00   0.00000000000000E+00  -3.24615749234840E-16   1.00000000000000E+00
      1.00000000000000E+00   0.00000000000000E+00   0.00000000000000E+00   7.33284319537348E-05   1.31154546894626E-32
      7.33284319537348E-05   4.01889639397855E-16
      2.21000000000000E-01
      2.21000000000000E-01   2.21000000000000E-01   0.00000000000000E+00   0.00000000000000E+00   0.00000000000000E+00
      0.00000000000000E+00   0.00000000000000E+00  -4.89134047798155E-16   0.00000000000000E+00   0.00000000000000E+00
      0.00000000000000E+00   0.00000000000000E+00  -7.93031788592352E-05   4.15230189688735E-32  -7.93031788592352E-05
      4.19287796014661E-16   0.00000000000000E+00   0.00000000000000E+00   0.00000000000000E+00   0.00000000000000E+00
      0.00000000000000E+00   0.00000000000000E+00   0.00000000000000E+00  -3.24659592193489E-16   1.00000000000000E+00
      1.00000000000000E+00   0.00000000000000E+00   0.00000000000000E+00   7.93031788594432E-05   8.97181238141352E-33
      7.93031788594432E-05   3.97507204957939E-16
      2.38000000000000E-01
      2.38000000000000E-01   2.38000000000000E-01   0.00000000000000E+00   0.00000000000000E+00   0.00000000000000E+00
      0.00000000000000E+00   0.00000000000000E+00  -4.78161194152681E-16   0.00000000000000E+00   0.00000000000000E+00
      0.00000000000000E+00   0.00000000000000E+00  -8.55436209005557E-05   2.65303800982494E-32  -8.55436209005557E-05
      4.13013323891394E-16   0.00000000000000E+00   0.00000000000000E+00   0.00000000000000E+00   0.00000000000000E+00
      0.00000000000000E+00   0.00000000000000E+00   0.00000000000000E+00  -3.24704834709199E-16   1.00000000000000E+00
      1.00000000000000E+00   0.00000000000000E+00   0.00000000000000E+00   8.55436209008114E-05   5.33336659676417E-33
      8.55436209008114E-05   3.93090902024815E-16
      2.55000000000000E-01
      2.55000000000000E-01   2.55000000000000E-01   0.00000000000000E+00   0.00000000000000E+00   0.00000000000000E+00
      0.00000000000000E+00   0.00000000000000E+00  -4.67052179541738E-16   0.00000000000000E+00   0.00000000000000E+00
      0.00000000000000E+00   0.00000000000000E+00  -9.20612824883936E-05   1.77360757266794E-32  -9.20612824883936E-05
      4.06650623459169E-16   0.00000000000000E+00   0.00000000000000E+00   0.00000000000000E+00   0.00000000000000E+00
      0.00000000000000E+00   0.00000000000000E+00   0.00000000000000E+00  -3.24751518722138E-16   1.00000000000000E+00
      1.00000000000000E+00   0.00000000000000E+00   0.00000000000000E+00   9.20612824887166E-05   3.87483162496385E-33
      9.20612824887166E-05   3.88638961825738E-16
      2.72000000000000E-01
      2.72000000000000E-01   2.72000000000000E-01   0.00000000000000E+00   0.00000000000000E+00   0.00000000000000E+00
      0.00000000000000E+00   0.00000000000000E+00  -4.55800309199836E-16   0.00000000000000E+00   0.00000000000000E+00
      0.00000000000000E+00   0.00000000000000E+00  -9.88701242495060E-05   1.23206266404804E-32  -9.88701242495060E-05
      4.00195778338957E-16   0.00000000000000E+00   0.00000000000000E+00   0.00000000000000E+00   0.00000000000000E+00
      0.00000000000000E+00   0.00000000000000E+00   0.00000000000000E+00  -3.24799704200077E-16   1.00000000000000E+00
      1.00000000000000E+00   0.00000000000000E+00   0.00000000000000E+00   9.88701242499125E-05   2.61598317681806E-33
      9.88701242499125E-05   3.84149273290776E-16
      2.89000000000000E-01
      2.89000000000000E-01   2.89000000000000E-01   0.00000000000000E+00   0.00000000000000E+00   0.00000000000000E+00
      0.00000000000000E+00   0.00000000000000E+00  -4.44398461270222E-16   0.00000000000000E+00   0.00000000000000E+00
      0.00000000000000E+00   0.00000000000000E+00  -1.05986712475960E-04   8.08734556158240E-33  -1.05986712475960E-04
      3.93644980002590E-16   0.00000000000000E+00   0.00000000000000E+00   0.00000000000000E+00   0.00000000000000E+00
      0.00000000000000E+00   0.00000000000000E+00   0.00000000000000E+00  -3.24849469612833E-16   1.00000000000000E+00
      1.00000000000000E+00   0.00000000000000E+00   0.00000000000000E+00   1.05986712476479E-04   1.61823699491167E-33
      1.05986712476479E-04   3.79619318964847E-16
      3.06000000000000E-01
      3.06000000000000E-01   3.06000000000000E-01   0.00000000000000E+00   0.00000000000000E+00   0.00000000000000E+00
      0.00000000000000E+00   0.00000000000000E+00  -4.32839110486976E-16   0.00000000000000E+00   0.00000000000000E+00
      0.00000000000000E+00   0.00000000000000E+00  -1.13430392054283E-04   4.80240750532569E-33  -1.13430392054283E-04
      3.86994598581384E-16   0.00000000000000E+00   0.00000000000000E+00   0.00000000000000E+00   0.00000000000000E+00
      0.00000000000000E+00   0.00000000000000E+00   0.00000000000000E+00  -3.24900913877717E-16   1.00000000000000E+00
      1.00000000000000E+00   0.00000000000000E+00   0.00000000000000E+00   1.13430392054953E-04   1.00683225826138E-33
      1.13430392054953E-04   3.75046136593087E-16
      3.23000000000000E-01
      3.23000000000000E-01   3.23000000000000E-01   0.00000000000000E+00   0.00000000000000E+00   0.00000000000000E+00
      0.00000000000000E+00   0.00000000000000E+00  -4.21114354302131E-16   0.00000000000000E+00   0.00000000000000E+00
      0.00000000000000E+00   0.00000000000000E+00  -1.21223381299377E-04   3.74168624095984E-33  -1.21223381299377E-04
      3.80241260104501E-16   0.00000000000000E+00   0.00000000000000E+00   0.00000000000000E+00   0.00000000000000E+00
      0.00000000000000E+00   0.00000000000000E+00   0.00000000000000E+00  -3.24954157577055E-16   1.00000000000000E+00
      1.00000000000000E+00   0.00000000000000E+00   0.00000000000000E+00   1.21223381300257E-04   5.71426322442600E-34
      1.21223381300257E-04   3.70426272166387E-16
      3.40000000000000E-01
      3.40000000000000E-01   3.40000000000000E-01   0.00000000000000E+00   0.00000000000000E+00   0.00000000000000E+00
      0.00000000000000E+00   0.00000000000000E+00  -4.09215957323012E-16   0.00000000000000E+00   0.00000000000000E+00
      0.00000000000000E+00   0.00000000000000E+00  -1.29390860462996E-04   2.45954731094603E-33  -1.29390860462996E-04
      3.73381912639486E-16   0.00000000000000E+00   0.00000000000000E+00   0.00000000000000E+00   0.00000000000000E+00
      0.00000000000000E+00   0.00000000000000E+00   0.00000000000000E+00  -3.25009341477580E-16   1.00000000000000E+00
      1.00000000000000E+00   0.00000000000000E+00   0.00000000000000E+00   1.29390860464165E-04   4.06761128052251E-34
      1.29390860464165E-04   3.65755758095459E-16
      3.57000000000000E-01
      3.57000000000000E-01   3.57000000000000E-01   0.00000000000000E+00   0.00000000000000E+00   0.00000000000000E+00
      0.00000000000000E+00   0.00000000000000E+00  -3.97135423300946E-16   0.00000000000000E+00   0.00000000000000E+00
      0.00000000000000E+00   0.00000000000000E+00  -1.37960870304651E-04   1.90318663799665E-33  -1.37960870304651E-04
      3.66413930404654E-16   0.00000000000000E+00   0.00000000000000E+00   0.00000000000000E+00   0.00000000000000E+00
      0.00000000000000E+00   0.00000000000000E+00   0.00000000000000E+00  -3.25066629286203E-16   1.00000000000000E+00
      1.00000000000000E+00   0.00000000000000E+00   0.00000000000000E+00   1.37960870306217E-04   3.15406582802320E-34
      1.37960870306217E-04   3.61030076266023E-16
      3.74000000000000E-01
      3.74000000000000E-01   3.74000000000000E-01   0.00000000000000E+00   0.00000000000000E+00   0.00000000000000E+00
      0.00000000000000E+00   0.00000000000000E+00  -3.84864045482473E-16   0.00000000000000E+00   0.00000000000000E+00
      0.00000000000000E+00   0.00000000000000E+00  -1.46964220548898E-04   1.42651707842711E-33  -1.46964220548898E-04
      3.59335156852870E-16   0.00000000000000E+00   0.00000000000000E+00   0.00000000000000E+00   0.00000000000000E+00
      0.00000000000000E+00   0.00000000000000E+00   0.00000000000000E+00  -3.25126201468943E-16   1.00000000000000E+00
      1.00000000000000E+00   0.00000000000000E+00   0.00000000000000E+00   1.46964220551022E-04   1.89694040225775E-34
      1.46964220551022E-04   3.56244149756412E-16
      3.91000000000000E-01
      3.91000000000000E-01   3.91000000000000E-01   0.00000000000000E+00   0.00000000000000E+00   0.00000000000000E+00
      0.00000000000000E+00   0.00000000000000E+00  -3.72393033700375E-16   0.00000000000000E+00   0.00000000000000E+00
      0.00000000000000E+00   0.00000000000000E+00  -1.56434135350556E-04   9.89405415994258E-34  -1.56434135350556E-04
      3.52144017067503E-16   0.00000000000000E+00   0.00000000000000E+00   0.00000000000000E+00   0.00000000000000E+00
      0.00000000000000E+00   0.00000000000000E+00   0.00000000000000E+00  -3.25188257021777E-16   1.00000000000000E+00
      1.00000000000000E+00   0.00000000000000E+00   0.00000000000000E+00   1.56434135350558E-04   1.68446584997840E-34
      1.56434135350558E-04   3.51392337610968E-16
      4.08000000000000E-01
      4.08000000000000E-01   4.08000000000000E-01   0.00000000000000E+00   0.00000000000000E+00   0.00000000000000E+00
      0.00000000000000E+00   0.00000000000000E+00  -3.59713636031944E-16   0.00000000000000E+00   0.00000000000000E+00
      0.00000000000000E+00   0.00000000000000E+00  -1.66405964792217E-04   7.68459091859454E-34  -1.66405964792217E-04
      3.44839574593661E-16   0.00000000000000E+00   0.00000000000000E+00   0.00000000000000E+00   0.00000000000000E+00
      0.00000000000000E+00   0.00000000000000E+00   0.00000000000000E+00  -3.25253008876308E-16   1.00000000000000E+00
      1.00000000000000E+00   0.00000000000000E+00   0.00000000000000E+00   1.66405964792216E-04   9.82035964330803E-35
      1.66405964792216E-04   3.46468473694093E-16
      4.25000000000000E-01
      4.25000000000000E-01   4.25000000000000E-01   0.00000000000000E+00   0.00000000000000E+00   0.00000000000000E+00
      0.00000000000000E+00   0.00000000000000E+00  -3.46817237459491E-16   0.00000000000000E+00   0.00000000000000E+00
      0.00000000000000E+00   0.00000000000000E+00  -1.76916887225544E-04   5.42536782405133E-34  -1.76916887225544E-04
      3.37421605595335E-16   0.00000000000000E+00   0.00000000000000E+00   0.00000000000000E+00   0.00000000000000E+00
      0.00000000000000E+00   0.00000000000000E+00   0.00000000000000E+00  -3.25320680772375E-16   1.00000000000000E+00
      1.00000000000000E+00   0.00000000000000E+00   0.00000000000000E+00   1.76916887225547E-04   8.14960700796936E-35
      1.76916887225547E-04   3.41465865091641E-16
      4.42000000000000E-01
      4.42000000000000E-01   4.42000000000000E-01   0.00000000000000E+00   0.00000000000000E+00   0.00000000000000E+00
      0.00000000000000E+00   0.00000000000000E+00  -3.33695422663444E-16   0.00000000000000E+00   0.00000000000000E+00
      0.00000000000000E+00   0.00000000000000E+00  -1.88006119445508E-04   4.59583424953626E-34  -1.88006119445508E-04
      3.29890666311988E-16   0.00000000000000E+00   0.00000000000000E+00   0.00000000000000E+00   0.00000000000000E+00
      0.00000000000000E+00   0.00000000000000E+00   0.00000000000000E+00  -3.25391506159867E-16   1.00000000000000E+00
      1.00000000000000E+00   0.00000000000000E+00   0.00000000000000E+00   1.88006119445508E-04   5.28705876310783E-35
      1.88006119445508E-04   3.36377283282817E-16
      4.59000000000000E-01
      4.59000000000000E-01   4.59000000000000E-01   0.00000000000000E+00   0.00000000000000E+00   0.00000000000000E+00
      0.00000000000000E+00   0.00000000000000E+00  -3.20339776276282E-16   0.00000000000000E+00   0.00000000000000E+00
      0.00000000000000E+00   0.00000000000000E+00  -1.99716668253717E-04   3.61171225933951E-34  -1.99716668253717E-04
      3.22248133323237E-16   0.00000000000000E+00   0.00000000000000E+00   0.00000000000000E+00   0.00000000000000E+00
      0.00000000000000E+00   0.00000000000000E+00   0.00000000000000E+00  -3.25465727570606E-16   1.00000000000000E+00
      1.00000000000000E+00   0.00000000000000E+00   0.00000000000000E+00   1.99716668253720E-04   3.91884143301516E-35
      1.99716668253720E-04   3.31194784256464E-16
      4.76000000000000E-01
      4.76000000000000E-01   4.76000000000000E-01   0.00000000000000E+00   0.00000000000000E+00   0.00000000000000E+00
      0.00000000000000E+00   0.00000000000000E+00  -3.06740913577070E-16   0.00000000000000E+00   0.00000000000000E+00
      0.00000000000000E+00   0.00000000000000E+00  -2.12102318778807E-04   3.15275212756003E-34  -2.12102318778807E-04
      3.14496289349231E-16   0.00000000000000E+00   0.00000000000000E+00   0.00000000000000E+00   0.00000000000000E+00
      0.00000000000000E+00   0.00000000000000E+00   0.00000000000000E+00  -3.25543615315405E-16   1.00000000000000E+00
      1.00000000000000E+00   0.00000000000000E+00   0.00000000000000E+00   2.12102318778808E-04   3.29081632149049E-35
      2.12102318778808E-04   3.25908951462502E-16
      4.93000000000000E-01
      4.93000000000000E-01   4.93000000000000E-01   0.00000000000000E+00   0.00000000000000E+00   0.00000000000000E+00
      0.00000000000000E+00   0.00000000000000E+00  -2.92883611984854E-16   0.00000000000000E+00   0.00000000000000E+00
      0.00000000000000E+00   0.00000000000000E+00  -2.25256626603088E-04   2.57081422111497E-34  -2.25256626603088E-04
      3.06637880105260E-16   0.00000000000000E+00   0.00000000000000E+00   0.00000000000000E+00   0.00000000000000E+00
      0.00000000000000E+00   0.00000000000000E+00   0.00000000000000E+00  -3.25625470300083E-16   1.00000000000000E+00
      1.00000000000000E+00   0.00000000000000E+00   0.00000000000000E+00   2.25256626603090E-04   2.54244674252236E-35
      2.25256626603090E-04   3.20505668764542E-16
      5.10000000000000E-01
      5.10000000000000E-01   5.10000000000000E-01   0.00000000000000E+00   0.00000000000000E+00   0.00000000000000E+00
      0.00000000000000E+00   0.00000000000000E+00  -2.78820336921381E-16   0.00000000000000E+00   0.00000000000000E+00
      0.00000000000000E+00   0.00000000000000E+00  -2.38911905976101E-04   2.23023637575210E-34  -2.38911905976101E-04
      2.98689797065963E-16   0.00000000000000E+00   0.00000000000000E+00   0.00000000000000E+00   0.00000000000000E+00
      0.00000000000000E+00   0.00000000000000E+00   0.00000000000000E+00  -3.25711611001016E-16   1.00000000000000E+00
      1.00000000000000E+00   0.00000000000000E+00   0.00000000000000E+00   2.38911905976102E-04   1.93897757096083E-35
      2.38911905976102E-04   3.15009412802902E-16
      5.27000000000000E-01
      5.27000000000000E-01   5.27000000000000E-01   0.00000000000000E+00   0.00000000000000E+00   0.00000000000000E+00
      0.00000000000000E+00   0.00000000000000E+00  -2.64551499993209E-16   0.00000000000000E+00   0.00000000000000E+00
      0.00000000000000E+00   0.00000000000000E+00  -2.52926215205292E-04   1.98717397171495E-34  -2.52926215205292E-04
      2.90627743931819E-16   0.00000000000000E+00   0.00000000000000E+00   0.00000000000000E+00   0.00000000000000E+00
      0.00000000000000E+00   0.00000000000000E+00   0.00000000000000E+00  -3.25799902425614E-16   1.00000000000000E+00
      1.00000000000000E+00   0.00000000000000E+00   0.00000000000000E+00   2.52926215205294E-04   1.57618277162481E-35
      2.52926215205294E-04   3.09435693953869E-16
      5.44000000000000E-01
      5.44000000000000E-01   5.44000000000000E-01   0.00000000000000E+00   0.00000000000000E+00   0.00000000000000E+00
      0.00000000000000E+00   0.00000000000000E+00  -2.50055072672940E-16   0.00000000000000E+00   0.00000000000000E+00
      0.00000000000000E+00   0.00000000000000E+00  -2.67410272696463E-04   1.71485534010494E-34  -2.67410272696463E-04
      2.82446640624175E-16   0.00000000000000E+00   0.00000000000000E+00   0.00000000000000E+00   0.00000000000000E+00
      0.00000000000000E+00   0.00000000000000E+00   0.00000000000000E+00  -3.25890539842341E-16   1.00000000000000E+00
      1.00000000000000E+00   0.00000000000000E+00   0.00000000000000E+00   2.67410272696462E-04   1.30281422024471E-35
      2.67410272696462E-04   3.03771160123193E-16
      5.61000000000000E-01
      5.61000000000000E-01   5.61000000000000E-01   0.00000000000000E+00   0.00000000000000E+00   0.00000000000000E+00
      0.00000000000000E+00   0.00000000000000E+00  -2.35325458364686E-16   0.00000000000000E+00   0.00000000000000E+00
      0.00000000000000E+00   0.00000000000000E+00  -2.82430092113314E-04   1.60418725006807E-34  -2.82430092113314E-04
      2.74152500336994E-16   0.00000000000000E+00   0.00000000000000E+00   0.00000000000000E+00   0.00000000000000E+00
      0.00000000000000E+00   0.00000000000000E+00   0.00000000000000E+00  -3.25984099960092E-16   1.00000000000000E+00
      1.00000000000000E+00   0.00000000000000E+00   0.00000000000000E+00   2.82430092113320E-04   1.02820196874974E-35
      2.82430092113320E-04   2.98006062077270E-16
      5.78000000000000E-01
      5.78000000000000E-01   5.78000000000000E-01   0.00000000000000E+00   0.00000000000000E+00   0.00000000000000E+00
      0.00000000000000E+00   0.00000000000000E+00  -2.20363353556951E-16   0.00000000000000E+00   0.00000000000000E+00
      0.00000000000000E+00   0.00000000000000E+00  -2.97998530967216E-04   1.34905433481836E-34  -2.97998530967216E-04
      2.65748903301078E-16   0.00000000000000E+00   0.00000000000000E+00   0.00000000000000E+00   0.00000000000000E+00
      0.00000000000000E+00   0.00000000000000E+00   0.00000000000000E+00  -3.26080740631979E-16   1.00000000000000E+00
      1.00000000000000E+00   0.00000000000000E+00   0.00000000000000E+00   2.97998530967219E-04   9.07393295864300E-36
      2.97998530967219E-04   2.92136886102560E-16
      5.95000000000000E-01
      5.95000000000000E-01   5.95000000000000E-01   0.00000000000000E+00   0.00000000000000E+00   0.00000000000000E+00
      0.00000000000000E+00   0.00000000000000E+00  -2.05172014582081E-16   0.00000000000000E+00   0.00000000000000E+00
      0.00000000000000E+00   0.00000000000000E+00  -3.14107696905214E-04   1.33133336772962E-34  -3.14107696905214E-04
      2.57243784369025E-16   0.00000000000000E+00   0.00000000000000E+00   0.00000000000000E+00   0.00000000000000E+00
      0.00000000000000E+00   0.00000000000000E+00   0.00000000000000E+00  -3.26180461644178E-16   1.00000000000000E+00
      1.00000000000000E+00   0.00000000000000E+00   0.00000000000000E+00   3.14107696905208E-04   7.67560754632426E-36
      3.14107696905208E-04   2.86162875353471E-16
      6.12000000000000E-01
      6.12000000000000E-01   6.12000000000000E-01   0.00000000000000E+00   0.00000000000000E+00   0.00000000000000E+00