DF-ISE text

Info {
  version   = 1.0
  type      = xyplot
  datasets  = [
    "time"
    "Ch_con_2 OuterVoltage" "Ch_con_2 InnerVoltage" "Ch_con_2 QuasiFermiPotential" "Ch_con_2 DisplacementCurrent" "Ch_con_2 eCurrent"
    "Ch_con_2 hCurrent" "Ch_con_2 TotalCurrent" "Ch_con_2 Charge" "Ls_con OuterVoltage" "Ls_con InnerVoltage"
    "Ls_con QuasiFermiPotential" "Ls_con DisplacementCurrent" "Ls_con eCurrent" "Ls_con hCurrent" "Ls_con TotalCurrent"
    "Ls_con Charge" "Ls_ext_con_1 OuterVoltage" "Ls_ext_con_1 InnerVoltage" "Ls_ext_con_1 QuasiFermiPotential" "Ls_ext_con_1 DisplacementCurrent"
    "Ls_ext_con_1 eCurrent" "Ls_ext_con_1 hCurrent" "Ls_ext_con_1 TotalCurrent" "Ls_ext_con_1 Charge" "Ld_con OuterVoltage"
    "Ld_con InnerVoltage" "Ld_con QuasiFermiPotential" "Ld_con DisplacementCurrent" "Ld_con eCurrent" "Ld_con hCurrent"
    "Ld_con TotalCurrent" "Ld_con Charge" ]
  functions = [
    Time
    OuterVoltage InnerVoltage QuasiFermiPotential DisplacementCurrent eCurrent
    hCurrent TotalCurrent Charge OuterVoltage InnerVoltage
    QuasiFermiPotential DisplacementCurrent eCurrent hCurrent TotalCurrent
    Charge OuterVoltage InnerVoltage QuasiFermiPotential DisplacementCurrent
    eCurrent hCurrent TotalCurrent Charge OuterVoltage
    InnerVoltage QuasiFermiPotential DisplacementCurrent eCurrent hCurrent
    TotalCurrent Charge ]
}

Data {
      0.00000000000000E+00
      0.00000000000000E+00   0.00000000000000E+00   0.00000000000000E+00   0.00000000000000E+00   0.00000000000000E+00
      0.00000000000000E+00   0.00000000000000E+00  -4.20768153020147E-16   0.00000000000000E+00   0.00000000000000E+00
      0.00000000000000E+00   0.00000000000000E+00  -1.92046713805852E-09  -2.20269416476414E-28  -1.92046713805852E-09
      2.72421059422548E-16   0.00000000000000E+00   0.00000000000000E+00   0.00000000000000E+00   0.00000000000000E+00
      0.00000000000000E+00   0.00000000000000E+00   0.00000000000000E+00  -1.53879888227297E-16   1.00000000000000E+00
      1.00000000000000E+00   0.00000000000000E+00   0.00000000000000E+00   1.92046713805845E-09   1.24329743090200E-30
      1.92046713805845E-09   3.02283029446588E-16
      1.70000000000000E-02
      1.70000000000000E-02   1.70000000000000E-02   0.00000000000000E+00   0.00000000000000E+00   0.00000000000000E+00
      0.00000000000000E+00   0.00000000000000E+00  -4.15392762309616E-16   0.00000000000000E+00   0.00000000000000E+00
      0.00000000000000E+00   0.00000000000000E+00  -3.18574719016890E-09   3.75766381316687E-29  -3.18574719016890E-09
      2.70379134931836E-16   0.00000000000000E+00   0.00000000000000E+00   0.00000000000000E+00   0.00000000000000E+00
      0.00000000000000E+00   0.00000000000000E+00   0.00000000000000E+00  -1.54765710789028E-16   1.00000000000000E+00
      1.00000000000000E+00   0.00000000000000E+00   0.00000000000000E+00   3.18574719049397E-09  -1.45075084946932E-30
      3.18574719049397E-09   2.99835734659624E-16
      3.40000000000000E-02
      3.40000000000000E-02   3.40000000000000E-02   0.00000000000000E+00   0.00000000000000E+00   0.00000000000000E+00
      0.00000000000000E+00   0.00000000000000E+00  -4.09980474852518E-16   0.00000000000000E+00   0.00000000000000E+00
      0.00000000000000E+00   0.00000000000000E+00  -5.26792806704279E-09   4.67037810576453E-30  -5.26792806704279E-09
      2.68280845408501E-16   0.00000000000000E+00   0.00000000000000E+00   0.00000000000000E+00   0.00000000000000E+00
      0.00000000000000E+00   0.00000000000000E+00   0.00000000000000E+00  -1.55632113980381E-16   1.00000000000000E+00
      1.00000000000000E+00   0.00000000000000E+00   0.00000000000000E+00   5.26792806785467E-09   1.35334918493904E-31
      5.26792806785467E-09   2.97388709671886E-16
      5.10000000000000E-02
      5.10000000000000E-02   5.10000000000000E-02   0.00000000000000E+00   0.00000000000000E+00   0.00000000000000E+00
      0.00000000000000E+00   0.00000000000000E+00  -4.04521268707616E-16   0.00000000000000E+00   0.00000000000000E+00
      0.00000000000000E+00   0.00000000000000E+00  -8.67777418240076E-09   9.07946049721277E-30  -8.67777418240076E-09
      2.66111753672509E-16   0.00000000000000E+00   0.00000000000000E+00   0.00000000000000E+00   0.00000000000000E+00
      0.00000000000000E+00   0.00000000000000E+00   0.00000000000000E+00  -1.56474588651576E-16   1.00000000000000E+00
      1.00000000000000E+00   0.00000000000000E+00   0.00000000000000E+00   8.67777418496903E-09  -3.37898684207593E-31
      8.67777418496903E-09   2.94941996042551E-16
      6.80000000000000E-02
      6.80000000000000E-02   6.80000000000000E-02   0.00000000000000E+00   0.00000000000000E+00   0.00000000000000E+00
      0.00000000000000E+00   0.00000000000000E+00  -3.99003759833948E-16   0.00000000000000E+00   0.00000000000000E+00
      0.00000000000000E+00   0.00000000000000E+00  -1.42294366174898E-08   2.51156667646352E-30  -1.42294366174898E-08
      2.63855894893537E-16   0.00000000000000E+00   0.00000000000000E+00   0.00000000000000E+00   0.00000000000000E+00
      0.00000000000000E+00   0.00000000000000E+00   0.00000000000000E+00  -1.57288362732651E-16   1.00000000000000E+00
      1.00000000000000E+00   0.00000000000000E+00   0.00000000000000E+00   1.42294366251552E-08  -2.27461868912773E-31
      1.42294366251552E-08   2.92495616834481E-16
      8.50000000000000E-02
      8.50000000000000E-02   8.50000000000000E-02   0.00000000000000E+00   0.00000000000000E+00   0.00000000000000E+00
      0.00000000000000E+00   0.00000000000000E+00  -3.93415662367241E-16   0.00000000000000E+00   0.00000000000000E+00
      0.00000000000000E+00   0.00000000000000E+00  -2.32065008844851E-08   8.79025055610416E-31  -2.32065008844851E-08
      2.61496666631575E-16   0.00000000000000E+00   0.00000000000000E+00   0.00000000000000E+00   0.00000000000000E+00
      0.00000000000000E+00   0.00000000000000E+00   0.00000000000000E+00  -1.58068767942786E-16   1.00000000000000E+00
      1.00000000000000E+00   0.00000000000000E+00   0.00000000000000E+00   2.32065009055889E-08   2.81936065309739E-31
      2.32065009055889E-08   2.90049555795876E-16
      1.02000000000000E-01
      1.02000000000000E-01   1.02000000000000E-01   0.00000000000000E+00   0.00000000000000E+00   0.00000000000000E+00
      0.00000000000000E+00   0.00000000000000E+00  -3.87744425498357E-16   0.00000000000000E+00   0.00000000000000E+00
      0.00000000000000E+00   0.00000000000000E+00  -3.76076219973245E-08   1.56513106348971E-30  -3.76076219973245E-08
      2.59018001228470E-16   0.00000000000000E+00   0.00000000000000E+00   0.00000000000000E+00   0.00000000000000E+00
      0.00000000000000E+00   0.00000000000000E+00   0.00000000000000E+00  -1.58811683179861E-16   1.00000000000000E+00
      1.00000000000000E+00   0.00000000000000E+00   0.00000000000000E+00   3.76076220500095E-08   4.76209695718266E-32
      3.76076220500095E-08   2.87603727223317E-16
      1.19000000000000E-01
      1.19000000000000E-01   1.19000000000000E-01   0.00000000000000E+00   0.00000000000000E+00   0.00000000000000E+00
      0.00000000000000E+00   0.00000000000000E+00  -3.81977887813952E-16   0.00000000000000E+00   0.00000000000000E+00
      0.00000000000000E+00   0.00000000000000E+00  -6.05012887637579E-08  -2.38547376222707E-30  -6.05012887637579E-08
      2.56405572095181E-16   0.00000000000000E+00   0.00000000000000E+00   0.00000000000000E+00   0.00000000000000E+00
      0.00000000000000E+00   0.00000000000000E+00   0.00000000000000E+00  -1.59513956603210E-16   1.00000000000000E+00
      1.00000000000000E+00   0.00000000000000E+00   0.00000000000000E+00   6.05012887637602E-08  -5.60428870788126E-33
      6.05012887637602E-08   2.85157934941739E-16
      1.36000000000000E-01
      1.36000000000000E-01   1.36000000000000E-01   0.00000000000000E+00   0.00000000000000E+00   0.00000000000000E+00
      0.00000000000000E+00   0.00000000000000E+00  -3.76104738711888E-16   0.00000000000000E+00   0.00000000000000E+00
      0.00000000000000E+00   0.00000000000000E+00  -9.65263842770168E-08  -9.64995549243239E-31  -9.65263842770168E-08
      2.53647723990920E-16   0.00000000000000E+00   0.00000000000000E+00   0.00000000000000E+00   0.00000000000000E+00
      0.00000000000000E+00   0.00000000000000E+00   0.00000000000000E+00  -1.60173695986900E-16   1.00000000000000E+00
      1.00000000000000E+00   0.00000000000000E+00   0.00000000000000E+00   9.65263842770130E-08   2.42393993697379E-33
      9.65263842770130E-08   2.82711818282498E-16
      1.53000000000000E-01
      1.53000000000000E-01   1.53000000000000E-01   0.00000000000000E+00   0.00000000000000E+00   0.00000000000000E+00
      0.00000000000000E+00   0.00000000000000E+00  -3.70114618681336E-16   0.00000000000000E+00   0.00000000000000E+00
      0.00000000000000E+00   0.00000000000000E+00  -1.52568392824119E-07  -1.19363210904287E-30  -1.52568392824119E-07
      2.50735896843878E-16   0.00000000000000E+00   0.00000000000000E+00   0.00000000000000E+00   0.00000000000000E+00
      0.00000000000000E+00   0.00000000000000E+00   0.00000000000000E+00  -1.60790355876796E-16   1.00000000000000E+00
      1.00000000000000E+00   0.00000000000000E+00   0.00000000000000E+00   1.52568392824109E-07  -1.16086526002445E-32
      1.52568392824109E-07   2.80264782656471E-16
      1.70000000000000E-01
      1.70000000000000E-01   1.70000000000000E-01   0.00000000000000E+00   0.00000000000000E+00   0.00000000000000E+00
      0.00000000000000E+00   0.00000000000000E+00  -3.63997798027379E-16   0.00000000000000E+00   0.00000000000000E+00
      0.00000000000000E+00   0.00000000000000E+00  -2.38645852957290E-07   4.39204942440170E-31  -2.38645852957290E-07
      2.47664493895038E-16   0.00000000000000E+00   0.00000000000000E+00   0.00000000000000E+00   0.00000000000000E+00
      0.00000000000000E+00   0.00000000000000E+00   0.00000000000000E+00  -1.61364620320279E-16   1.00000000000000E+00
      1.00000000000000E+00   0.00000000000000E+00   0.00000000000000E+00   2.38645852957294E-07   2.95662463853569E-33
      2.38645852957294E-07   2.77815910450752E-16
      1.87000000000000E-01
      1.87000000000000E-01   1.87000000000000E-01   0.00000000000000E+00   0.00000000000000E+00   0.00000000000000E+00
      0.00000000000000E+00   0.00000000000000E+00  -3.57744507753978E-16   0.00000000000000E+00   0.00000000000000E+00
      0.00000000000000E+00   0.00000000000000E+00  -3.68986176941123E-07   1.01654662812616E-31  -3.68986176941123E-07
      2.44430324211388E-16   0.00000000000000E+00   0.00000000000000E+00   0.00000000000000E+00   0.00000000000000E+00
      0.00000000000000E+00   0.00000000000000E+00   0.00000000000000E+00  -1.61898142718030E-16   1.00000000000000E+00
      1.00000000000000E+00   0.00000000000000E+00   0.00000000000000E+00   3.68986176941110E-07  -1.77501933012560E-33
      3.68986176941110E-07   2.75363851433503E-16
      2.04000000000000E-01
      2.04000000000000E-01   2.04000000000000E-01   0.00000000000000E+00   0.00000000000000E+00   0.00000000000000E+00
      0.00000000000000E+00   0.00000000000000E+00  -3.51344065343514E-16   0.00000000000000E+00   0.00000000000000E+00
      0.00000000000000E+00   0.00000000000000E+00  -5.63245523342025E-07  -2.53161182309789E-31  -5.63245523342025E-07
      2.41031835562717E-16   0.00000000000000E+00   0.00000000000000E+00   0.00000000000000E+00   0.00000000000000E+00
      0.00000000000000E+00   0.00000000000000E+00   0.00000000000000E+00  -1.62393228376570E-16   1.00000000000000E+00
      1.00000000000000E+00   0.00000000000000E+00   0.00000000000000E+00   5.63245523342076E-07  -1.04140001283399E-33
      5.63245523342076E-07   2.72906693766820E-16
      2.21000000000000E-01
      2.21000000000000E-01   2.21000000000000E-01   0.00000000000000E+00   0.00000000000000E+00   0.00000000000000E+00
      0.00000000000000E+00   0.00000000000000E+00  -3.44783987872321E-16   0.00000000000000E+00   0.00000000000000E+00
      0.00000000000000E+00   0.00000000000000E+00  -8.47714566619639E-07  -8.21163931478442E-32  -8.47714566619639E-07
      2.37468361214566E-16   0.00000000000000E+00   0.00000000000000E+00   0.00000000000000E+00   0.00000000000000E+00
      0.00000000000000E+00   0.00000000000000E+00   0.00000000000000E+00  -1.62852541353259E-16   1.00000000000000E+00
      1.00000000000000E+00   0.00000000000000E+00   0.00000000000000E+00   8.47714566619612E-07   1.62888207512275E-33
      8.47714566619612E-07   2.70441827266266E-16
      2.38000000000000E-01
      2.38000000000000E-01   2.38000000000000E-01   0.00000000000000E+00   0.00000000000000E+00   0.00000000000000E+00
      0.00000000000000E+00   0.00000000000000E+00  -3.38049269030411E-16   0.00000000000000E+00   0.00000000000000E+00
      0.00000000000000E+00   0.00000000000000E+00  -1.25622426031906E-06  -7.04116856469009E-32  -1.25622426031906E-06
      2.33739505573605E-16   0.00000000000000E+00   0.00000000000000E+00   0.00000000000000E+00   0.00000000000000E+00
      0.00000000000000E+00   0.00000000000000E+00   0.00000000000000E+00  -1.63278878793232E-16   1.00000000000000E+00
      1.00000000000000E+00   0.00000000000000E+00   0.00000000000000E+00   1.25622426031908E-06   5.19874504769639E-34
      1.25622426031908E-06   2.67965824609492E-16
      2.55000000000000E-01
      2.55000000000000E-01   2.55000000000000E-01   0.00000000000000E+00   0.00000000000000E+00   0.00000000000000E+00
      0.00000000000000E+00   0.00000000000000E+00  -3.31121816570905E-16   0.00000000000000E+00   0.00000000000000E+00
      0.00000000000000E+00   0.00000000000000E+00  -1.83069823420479E-06  -4.34057928229784E-33  -1.83069823420479E-06
      2.29844634822691E-16   0.00000000000000E+00   0.00000000000000E+00   0.00000000000000E+00   0.00000000000000E+00
      0.00000000000000E+00   0.00000000000000E+00   0.00000000000000E+00  -1.63674996981647E-16   1.00000000000000E+00
      1.00000000000000E+00   0.00000000000000E+00   0.00000000000000E+00   1.83069823420474E-06  -1.27971600191821E-34
      1.83069823420474E-06   2.65474347833830E-16
      2.72000000000000E-01
      2.72000000000000E-01   2.72000000000000E-01   0.00000000000000E+00   0.00000000000000E+00   0.00000000000000E+00
      0.00000000000000E+00   0.00000000000000E+00  -3.23980349511923E-16   0.00000000000000E+00   0.00000000000000E+00
      0.00000000000000E+00   0.00000000000000E+00  -2.62074131845265E-06  -4.68669548083721E-32  -2.62074131845265E-06
      2.25782608466633E-16   0.00000000000000E+00   0.00000000000000E+00   0.00000000000000E+00   0.00000000000000E+00
      0.00000000000000E+00   0.00000000000000E+00   0.00000000000000E+00  -1.64043535025131E-16   1.00000000000000E+00
      1.00000000000000E+00   0.00000000000000E+00   0.00000000000000E+00   2.62074131845274E-06  -2.30340518894248E-34
      2.62074131845274E-06   2.62962140006291E-16
      2.89000000000000E-01
      2.89000000000000E-01   2.89000000000000E-01   0.00000000000000E+00   0.00000000000000E+00   0.00000000000000E+00
      0.00000000000000E+00   0.00000000000000E+00  -3.16600547103082E-16   0.00000000000000E+00   0.00000000000000E+00
      0.00000000000000E+00   0.00000000000000E+00  -3.68269503518931E-06  -7.08114414424947E-33  -3.68269503518931E-06
      2.21551639852371E-16   0.00000000000000E+00   0.00000000000000E+00   0.00000000000000E+00   0.00000000000000E+00
      0.00000000000000E+00   0.00000000000000E+00   0.00000000000000E+00  -1.64386983050027E-16   1.00000000000000E+00
      1.00000000000000E+00   0.00000000000000E+00   0.00000000000000E+00   3.68269503518920E-06  -1.33903718198003E-34
      3.68269503518920E-06   2.60423068938910E-16
      3.06000000000000E-01
      3.06000000000000E-01   3.06000000000000E-01   0.00000000000000E+00   0.00000000000000E+00   0.00000000000000E+00
      0.00000000000000E+00   0.00000000000000E+00  -3.08955477938325E-16   0.00000000000000E+00   0.00000000000000E+00
      0.00000000000000E+00   0.00000000000000E+00  -5.07787102749003E-06   1.93320146196167E-33  -5.07787102749003E-06
      2.17149172214160E-16   0.00000000000000E+00   0.00000000000000E+00   0.00000000000000E+00   0.00000000000000E+00
      0.00000000000000E+00   0.00000000000000E+00   0.00000000000000E+00  -1.64707658740881E-16   1.00000000000000E+00
      1.00000000000000E+00   0.00000000000000E+00   0.00000000000000E+00   5.07787102749018E-06  -3.29505549394564E-35
      5.07787102749018E-06   2.57850255670911E-16
      3.23000000000000E-01
      3.23000000000000E-01   3.23000000000000E-01   0.00000000000000E+00   0.00000000000000E+00   0.00000000000000E+00
      0.00000000000000E+00   0.00000000000000E+00  -3.01016082477180E-16   0.00000000000000E+00   0.00000000000000E+00
      0.00000000000000E+00   0.00000000000000E+00  -6.87118558394879E-06  -7.30008071923207E-34  -6.87118558394879E-06
      2.12572002645290E-16   0.00000000000000E+00   0.00000000000000E+00   0.00000000000000E+00   0.00000000000000E+00
      0.00000000000000E+00   0.00000000000000E+00   0.00000000000000E+00  -1.65007731917611E-16   1.00000000000000E+00
      1.00000000000000E+00   0.00000000000000E+00   0.00000000000000E+00   6.87118558394881E-06  -1.92168309406911E-36
      6.87118558394881E-06   2.55236171373711E-16
      3.40000000000000E-01
      3.40000000000000E-01   3.40000000000000E-01   0.00000000000000E+00   0.00000000000000E+00   0.00000000000000E+00
      0.00000000000000E+00   0.00000000000000E+00  -2.92751936044749E-16   0.00000000000000E+00   0.00000000000000E+00
      0.00000000000000E+00   0.00000000000000E+00  -9.12966131873648E-06  -2.38071038744926E-33  -9.12966131873648E-06
      2.07816691202831E-16   0.00000000000000E+00   0.00000000000000E+00   0.00000000000000E+00   0.00000000000000E+00
      0.00000000000000E+00   0.00000000000000E+00   0.00000000000000E+00  -1.65289304397006E-16   1.00000000000000E+00
      1.00000000000000E+00   0.00000000000000E+00   0.00000000000000E+00   9.12966131873629E-06  -4.62832666388967E-35
      9.12966131873629E-06   2.52572752284563E-16
      3.57000000000000E-01
      3.57000000000000E-01   3.57000000000000E-01   0.00000000000000E+00   0.00000000000000E+00   0.00000000000000E+00
      0.00000000000000E+00   0.00000000000000E+00  -2.84131621995549E-16   0.00000000000000E+00   0.00000000000000E+00
      0.00000000000000E+00   0.00000000000000E+00  -1.19214520820837E-05  -4.68487540170744E-35  -1.19214520820837E-05
      2.02879611343027E-16   0.00000000000000E+00   0.00000000000000E+00   0.00000000000000E+00   0.00000000000000E+00
      0.00000000000000E+00   0.00000000000000E+00   0.00000000000000E+00  -1.65554356911903E-16   1.00000000000000E+00
      1.00000000000000E+00   0.00000000000000E+00   0.00000000000000E+00   1.19214520820839E-05  -3.48117885131763E-37
      1.19214520820839E-05   2.49851471188671E-16
      3.74000000000000E-01
      3.74000000000000E-01   3.74000000000000E-01   0.00000000000000E+00   0.00000000000000E+00   0.00000000000000E+00
      0.00000000000000E+00   0.00000000000000E+00  -2.75123718639380E-16   0.00000000000000E+00   0.00000000000000E+00
      0.00000000000000E+00   0.00000000000000E+00  -1.53147036835014E-05  -8.42345130967109E-34  -1.53147036835014E-05
      1.97757707316422E-16   0.00000000000000E+00   0.00000000000000E+00   0.00000000000000E+00   0.00000000000000E+00
      0.00000000000000E+00   0.00000000000000E+00   0.00000000000000E+00  -1.65804871969578E-16   1.00000000000000E+00
      1.00000000000000E+00   0.00000000000000E+00   0.00000000000000E+00   1.53147036835011E-05   3.68604997617940E-36
      1.53147036835011E-05   2.47063425710376E-16
      3.91000000000000E-01
      3.91000000000000E-01   3.91000000000000E-01   0.00000000000000E+00   0.00000000000000E+00   0.00000000000000E+00
      0.00000000000000E+00   0.00000000000000E+00  -2.65696989626585E-16   0.00000000000000E+00   0.00000000000000E+00
      0.00000000000000E+00   0.00000000000000E+00  -1.93786745844099E-05   2.94892671790201E-33  -1.93786745844099E-05
      1.92449053918455E-16   0.00000000000000E+00   0.00000000000000E+00   0.00000000000000E+00   0.00000000000000E+00
      0.00000000000000E+00   0.00000000000000E+00   0.00000000000000E+00  -1.66042828708889E-16   1.00000000000000E+00
      1.00000000000000E+00   0.00000000000000E+00   0.00000000000000E+00   1.93786745844095E-05  -3.67394017762640E-36
      1.93786745844095E-05   2.44199190716130E-16
      4.08000000000000E-01
      4.08000000000000E-01   4.08000000000000E-01   0.00000000000000E+00   0.00000000000000E+00   0.00000000000000E+00
      0.00000000000000E+00   0.00000000000000E+00  -2.55821353142950E-16   0.00000000000000E+00   0.00000000000000E+00
      0.00000000000000E+00   0.00000000000000E+00  -2.41822606659217E-05  -5.17151469555311E-34  -2.41822606659217E-05
      1.86953285331296E-16   0.00000000000000E+00   0.00000000000000E+00   0.00000000000000E+00   0.00000000000000E+00
      0.00000000000000E+00   0.00000000000000E+00   0.00000000000000E+00  -1.66270227860937E-16   1.00000000000000E+00
      1.00000000000000E+00   0.00000000000000E+00   0.00000000000000E+00   2.41822606659208E-05  -2.40001487943098E-38
      2.41822606659208E-05   2.41248937406753E-16
      4.25000000000000E-01
      4.25000000000000E-01   4.25000000000000E-01   0.00000000000000E+00   0.00000000000000E+00   0.00000000000000E+00
      0.00000000000000E+00   0.00000000000000E+00  -2.45468022875511E-16   0.00000000000000E+00   0.00000000000000E+00
      0.00000000000000E+00   0.00000000000000E+00  -2.97957547523024E-05  -7.21600122711124E-34  -2.97957547523024E-05
      1.81272176248919E-16   0.00000000000000E+00   0.00000000000000E+00   0.00000000000000E+00   0.00000000000000E+00
      0.00000000000000E+00   0.00000000000000E+00   0.00000000000000E+00  -1.66489083662815E-16   1.00000000000000E+00
      1.00000000000000E+00   0.00000000000000E+00   0.00000000000000E+00   2.97957547523014E-05   1.94650295729407E-37
      2.97957547523014E-05   2.38202198092207E-16
      4.42000000000000E-01
      4.42000000000000E-01   4.42000000000000E-01   0.00000000000000E+00   0.00000000000000E+00   0.00000000000000E+00
      0.00000000000000E+00   0.00000000000000E+00  -2.34610239406967E-16   0.00000000000000E+00   0.00000000000000E+00
      0.00000000000000E+00   0.00000000000000E+00  -3.62913881162123E-05  -6.73569206921695E-34  -3.62913881162123E-05
      1.75410444969994E-16   0.00000000000000E+00   0.00000000000000E+00   0.00000000000000E+00   0.00000000000000E+00
      0.00000000000000E+00   0.00000000000000E+00   0.00000000000000E+00  -1.66701498800133E-16   1.00000000000000E+00
      1.00000000000000E+00   0.00000000000000E+00   0.00000000000000E+00   3.62913881162127E-05  -5.47095251675113E-37
      3.62913881162127E-05   2.35047739147462E-16
      4.59000000000000E-01
      4.59000000000000E-01   4.59000000000000E-01   0.00000000000000E+00   0.00000000000000E+00   0.00000000000000E+00
      0.00000000000000E+00   0.00000000000000E+00  -2.23262155522170E-16   0.00000000000000E+00   0.00000000000000E+00
      0.00000000000000E+00   0.00000000000000E+00  -4.36042020150087E-05  -7.85384073155310E-34  -4.36042020150087E-05
      1.69361495597138E-16   0.00000000000000E+00   0.00000000000000E+00   0.00000000000000E+00   0.00000000000000E+00
      0.00000000000000E+00   0.00000000000000E+00   0.00000000000000E+00  -1.66908939108802E-16   1.00000000000000E+00
      1.00000000000000E+00   0.00000000000000E+00   0.00000000000000E+00   4.36042020150089E-05   1.22437276209132E-36
      4.36042020150089E-05   2.31789020274228E-16
      4.76000000000000E-01
      4.76000000000000E-01   4.76000000000000E-01   0.00000000000000E+00   0.00000000000000E+00   0.00000000000000E+00
      0.00000000000000E+00   0.00000000000000E+00  -2.11486085962389E-16   0.00000000000000E+00   0.00000000000000E+00
      0.00000000000000E+00   0.00000000000000E+00  -5.14581723982160E-05  -7.79393109811673E-34  -5.14581723982160E-05
      1.63083741686305E-16   0.00000000000000E+00   0.00000000000000E+00   0.00000000000000E+00   0.00000000000000E+00
      0.00000000000000E+00   0.00000000000000E+00   0.00000000000000E+00  -1.67110293615549E-16   1.00000000000000E+00
      1.00000000000000E+00   0.00000000000000E+00   0.00000000000000E+00   5.14581723983918E-05  -3.42586494918689E-37
      5.14581723983918E-05   2.28453991562435E-16
      4.93000000000000E-01
      4.93000000000000E-01   4.93000000000000E-01   0.00000000000000E+00   0.00000000000000E+00   0.00000000000000E+00
      0.00000000000000E+00   0.00000000000000E+00  -1.99213236204526E-16   0.00000000000000E+00   0.00000000000000E+00
      0.00000000000000E+00   0.00000000000000E+00  -6.01176490263719E-05  -5.04110237619998E-34  -6.01176490263719E-05
      1.56630584301342E-16   0.00000000000000E+00   0.00000000000000E+00   0.00000000000000E+00   0.00000000000000E+00
      0.00000000000000E+00   0.00000000000000E+00   0.00000000000000E+00  -1.67310373523541E-16   1.00000000000000E+00
      1.00000000000000E+00   0.00000000000000E+00   0.00000000000000E+00   6.01176490263744E-05   3.18263153304487E-37
      6.01176490263744E-05   2.25010045826646E-16
      5.10000000000000E-01
      5.10000000000000E-01   5.10000000000000E-01   0.00000000000000E+00   0.00000000000000E+00   0.00000000000000E+00
      0.00000000000000E+00   0.00000000000000E+00  -1.86429803753675E-16   0.00000000000000E+00   0.00000000000000E+00
      0.00000000000000E+00   0.00000000000000E+00  -6.96104881971240E-05   6.64835041613920E-34  -6.96104881971240E-05
      1.50008278792017E-16   0.00000000000000E+00   0.00000000000000E+00   0.00000000000000E+00   0.00000000000000E+00
      0.00000000000000E+00   0.00000000000000E+00   0.00000000000000E+00  -1.67509258878629E-16   1.00000000000000E+00
      1.00000000000000E+00   0.00000000000000E+00   0.00000000000000E+00   6.96104881971238E-05  -3.55872118763945E-38
      6.96104881971238E-05   2.21450276936367E-16
      5.27000000000000E-01
      5.27000000000000E-01   5.27000000000000E-01   0.00000000000000E+00   0.00000000000000E+00   0.00000000000000E+00
      0.00000000000000E+00   0.00000000000000E+00  -1.73140186453230E-16   0.00000000000000E+00   0.00000000000000E+00
      0.00000000000000E+00   0.00000000000000E+00  -7.99217966629501E-05  -2.48260344755717E-34  -7.99217966629501E-05
      1.43221711502189E-16   0.00000000000000E+00   0.00000000000000E+00   0.00000000000000E+00   0.00000000000000E+00
      0.00000000000000E+00   0.00000000000000E+00   0.00000000000000E+00  -1.67707837478331E-16   1.00000000000000E+00
      1.00000000000000E+00   0.00000000000000E+00   0.00000000000000E+00   7.99217966629493E-05   2.02218291468220E-37
      7.99217966629493E-05   2.17772534160058E-16
      5.44000000000000E-01
      5.44000000000000E-01   5.44000000000000E-01   0.00000000000000E+00   0.00000000000000E+00   0.00000000000000E+00
      0.00000000000000E+00   0.00000000000000E+00  -1.59356179333304E-16   0.00000000000000E+00   0.00000000000000E+00
      0.00000000000000E+00   0.00000000000000E+00  -9.10246705061624E-05   3.80810538321519E-35  -9.10246705061624E-05
      1.36279162632755E-16   0.00000000000000E+00   0.00000000000000E+00   0.00000000000000E+00   0.00000000000000E+00
      0.00000000000000E+00   0.00000000000000E+00   0.00000000000000E+00  -1.67907276935588E-16   1.00000000000000E+00
      1.00000000000000E+00   0.00000000000000E+00   0.00000000000000E+00   9.10246705061618E-05  -5.71724019753576E-38
      9.10246705061618E-05   2.13976155719921E-16
      5.61000000000000E-01
      5.61000000000000E-01   5.61000000000000E-01   0.00000000000000E+00   0.00000000000000E+00   0.00000000000000E+00
      0.00000000000000E+00   0.00000000000000E+00  -1.45092450678857E-16   0.00000000000000E+00   0.00000000000000E+00
      0.00000000000000E+00   0.00000000000000E+00  -1.02886049770287E-04  -1.56603628267394E-35  -1.02886049770287E-04
      1.29189254004295E-16   0.00000000000000E+00   0.00000000000000E+00   0.00000000000000E+00   0.00000000000000E+00
      0.00000000000000E+00   0.00000000000000E+00   0.00000000000000E+00  -1.68108466193816E-16   1.00000000000000E+00
      1.00000000000000E+00   0.00000000000000E+00   0.00000000000000E+00   1.02886049770287E-04  -4.06269340017945E-38
      1.02886049770287E-04   2.10061441585971E-16
      5.78000000000000E-01
      5.78000000000000E-01   5.78000000000000E-01   0.00000000000000E+00   0.00000000000000E+00   0.00000000000000E+00
      0.00000000000000E+00   0.00000000000000E+00  -1.30366570938012E-16   0.00000000000000E+00   0.00000000000000E+00
      0.00000000000000E+00   0.00000000000000E+00  -1.15467470814639E-04  -1.27327958180803E-34  -1.15467470814639E-04
      1.21960954682491E-16   0.00000000000000E+00   0.00000000000000E+00   0.00000000000000E+00   0.00000000000000E+00
      0.00000000000000E+00   0.00000000000000E+00   0.00000000000000E+00  -1.68312112359690E-16   1.00000000000000E+00
      1.00000000000000E+00   0.00000000000000E+00   0.00000000000000E+00   1.15467470814640E-04  -3.91512073606840E-38
      1.15467470814640E-04   2.06029682095970E-16
      5.95000000000000E-01
      5.95000000000000E-01   5.95000000000000E-01   0.00000000000000E+00   0.00000000000000E+00   0.00000000000000E+00
      0.00000000000000E+00   0.00000000000000E+00  -1.15198589911683E-16   0.00000000000000E+00   0.00000000000000E+00
      0.00000000000000E+00   0.00000000000000E+00  -1.28726562387392E-04  -1.61138722046520E-34  -1.28726562387392E-04
      1.14603413435491E-16   0.00000000000000E+00   0.00000000000000E+00   0.00000000000000E+00   0.00000000000000E+00
      0.00000000000000E+00   0.00000000000000E+00   0.00000000000000E+00  -1.68518781330328E-16   1.00000000000000E+00
      1.00000000000000E+00   0.00000000000000E+00   0.00000000000000E+00   1.28726562387393E-04   4.36297315081012E-39
      1.28726562387393E-04   2.01883066537419E-16
      6.12000000000000E-01
      6.12000000000000E-01   6.12000000000000E-01   0.00000000000000E+00   0.00000000000000E+00   0.00000000000000E+00