DF-ISE text

Info {
  version   = 1.0
  type      = xyplot
  datasets  = [
    "time"
    "Ch_con_2 OuterVoltage" "Ch_con_2 InnerVoltage" "Ch_con_2 QuasiFermiPotential" "Ch_con_2 DisplacementCurrent" "Ch_con_2 eCurrent"
    "Ch_con_2 hCurrent" "Ch_con_2 TotalCurrent" "Ch_con_2 Charge" "Ls_con OuterVoltage" "Ls_con InnerVoltage"
    "Ls_con QuasiFermiPotential" "Ls_con DisplacementCurrent" "Ls_con eCurrent" "Ls_con hCurrent" "Ls_con TotalCurrent"
    "Ls_con Charge" "Ls_ext_con_1 OuterVoltage" "Ls_ext_con_1 InnerVoltage" "Ls_ext_con_1 QuasiFermiPotential" "Ls_ext_con_1 DisplacementCurrent"
    "Ls_ext_con_1 eCurrent" "Ls_ext_con_1 hCurrent" "Ls_ext_con_1 TotalCurrent" "Ls_ext_con_1 Charge" "Ld_con OuterVoltage"
    "Ld_con InnerVoltage" "Ld_con QuasiFermiPotential" "Ld_con DisplacementCurrent" "Ld_con eCurrent" "Ld_con hCurrent"
    "Ld_con TotalCurrent" "Ld_con Charge" ]
  functions = [
    Time
    OuterVoltage InnerVoltage QuasiFermiPotential DisplacementCurrent eCurrent
    hCurrent TotalCurrent Charge OuterVoltage InnerVoltage
    QuasiFermiPotential DisplacementCurrent eCurrent hCurrent TotalCurrent
    Charge OuterVoltage InnerVoltage QuasiFermiPotential DisplacementCurrent
    eCurrent hCurrent TotalCurrent Charge OuterVoltage
    InnerVoltage QuasiFermiPotential DisplacementCurrent eCurrent hCurrent
    TotalCurrent Charge ]
}

Data {
      0.00000000000000E+00
      0.00000000000000E+00   0.00000000000000E+00   0.00000000000000E+00   0.00000000000000E+00   0.00000000000000E+00
      0.00000000000000E+00   0.00000000000000E+00  -5.95996533318648E-16   0.00000000000000E+00   0.00000000000000E+00
      0.00000000000000E+00   0.00000000000000E+00  -6.50642650681973E-07   1.00024271779381E-28  -6.50642650681973E-07
      3.86558553661569E-16   0.00000000000000E+00   0.00000000000000E+00   0.00000000000000E+00   0.00000000000000E+00
      0.00000000000000E+00   0.00000000000000E+00   0.00000000000000E+00  -2.15138791998629E-16   1.00000000000000E+00
      1.00000000000000E+00   0.00000000000000E+00   0.00000000000000E+00   6.50642650681981E-07   3.71881914071681E-30
      6.50642650681981E-07   4.24694803459671E-16
      1.70000000000000E-02
      1.70000000000000E-02   1.70000000000000E-02   0.00000000000000E+00   0.00000000000000E+00   0.00000000000000E+00
      0.00000000000000E+00   0.00000000000000E+00  -5.87337051676517E-16   0.00000000000000E+00   0.00000000000000E+00
      0.00000000000000E+00   0.00000000000000E+00  -9.07791349828837E-07   5.33025028641642E-29  -9.07791349828837E-07
      3.81507401887171E-16   0.00000000000000E+00   0.00000000000000E+00   0.00000000000000E+00   0.00000000000000E+00
      0.00000000000000E+00   0.00000000000000E+00   0.00000000000000E+00  -2.15159845578114E-16   1.00000000000000E+00
      1.00000000000000E+00   0.00000000000000E+00   0.00000000000000E+00   9.07791349829154E-07   2.25208232595693E-30
      9.07791349829154E-07   4.21142021449920E-16
      3.40000000000000E-02
      3.40000000000000E-02   3.40000000000000E-02   0.00000000000000E+00   0.00000000000000E+00   0.00000000000000E+00
      0.00000000000000E+00   0.00000000000000E+00  -5.78590994208224E-16   0.00000000000000E+00   0.00000000000000E+00
      0.00000000000000E+00   0.00000000000000E+00  -1.25433492328751E-06   3.07540638632894E-29  -1.25433492328751E-06
      3.76395037340210E-16   0.00000000000000E+00   0.00000000000000E+00   0.00000000000000E+00   0.00000000000000E+00
      0.00000000000000E+00   0.00000000000000E+00   0.00000000000000E+00  -2.15180477377194E-16   1.00000000000000E+00
      1.00000000000000E+00   0.00000000000000E+00   0.00000000000000E+00   1.25433492336086E-06   1.40008056386252E-30
      1.25433492336086E-06   4.17575345881510E-16
      5.10000000000000E-02
      5.10000000000000E-02   5.10000000000000E-02   0.00000000000000E+00   0.00000000000000E+00   0.00000000000000E+00
      0.00000000000000E+00   0.00000000000000E+00  -5.69751741135662E-16   0.00000000000000E+00   0.00000000000000E+00
      0.00000000000000E+00   0.00000000000000E+00  -1.71474217471273E-06   2.03517914499465E-29  -1.71474217471273E-06
      3.71219887807352E-16   0.00000000000000E+00   0.00000000000000E+00   0.00000000000000E+00   0.00000000000000E+00
      0.00000000000000E+00   0.00000000000000E+00   0.00000000000000E+00  -2.15200995928771E-16   1.00000000000000E+00
      1.00000000000000E+00   0.00000000000000E+00   0.00000000000000E+00   1.71474217471280E-06   7.34616642428489E-31
      1.71474217471280E-06   4.13993260133929E-16
      6.80000000000000E-02
      6.80000000000000E-02   6.80000000000000E-02   0.00000000000000E+00   0.00000000000000E+00   0.00000000000000E+00
      0.00000000000000E+00   0.00000000000000E+00  -5.60812100984767E-16   0.00000000000000E+00   0.00000000000000E+00
      0.00000000000000E+00   0.00000000000000E+00  -2.31696783484825E-06   1.23508953490004E-29  -2.31696783484825E-06
      3.65980502321990E-16   0.00000000000000E+00   0.00000000000000E+00   0.00000000000000E+00   0.00000000000000E+00
      0.00000000000000E+00   0.00000000000000E+00   0.00000000000000E+00  -2.15221738753697E-16   1.00000000000000E+00
      1.00000000000000E+00   0.00000000000000E+00   0.00000000000000E+00   2.31696783484813E-06   4.22908958573561E-31
      2.31696783484813E-06   4.10394032977727E-16
      8.50000000000000E-02
      8.50000000000000E-02   8.50000000000000E-02   0.00000000000000E+00   0.00000000000000E+00   0.00000000000000E+00
      0.00000000000000E+00   0.00000000000000E+00  -5.51764452132034E-16   0.00000000000000E+00   0.00000000000000E+00
      0.00000000000000E+00   0.00000000000000E+00  -3.09161714467267E-06   7.22971864416575E-30  -3.09161714467267E-06
      3.60675524809197E-16   0.00000000000000E+00   0.00000000000000E+00   0.00000000000000E+00   0.00000000000000E+00
      0.00000000000000E+00   0.00000000000000E+00   0.00000000000000E+00  -2.15243062310233E-16   1.00000000000000E+00
      1.00000000000000E+00   0.00000000000000E+00   0.00000000000000E+00   3.09161714467261E-06   2.17286720225373E-31
      3.09161714467261E-06   4.06775764295479E-16
      1.02000000000000E-01
      1.02000000000000E-01   1.02000000000000E-01   0.00000000000000E+00   0.00000000000000E+00   0.00000000000000E+00
      0.00000000000000E+00   0.00000000000000E+00  -5.42600936089602E-16   0.00000000000000E+00   0.00000000000000E+00
      0.00000000000000E+00   0.00000000000000E+00  -4.07066489986454E-06   4.04636844277451E-30  -4.07066489986454E-06
      3.55303630909201E-16   0.00000000000000E+00   0.00000000000000E+00   0.00000000000000E+00   0.00000000000000E+00
      0.00000000000000E+00   0.00000000000000E+00   0.00000000000000E+00  -2.15265327294370E-16   1.00000000000000E+00
      1.00000000000000E+00   0.00000000000000E+00   0.00000000000000E+00   4.07066489986434E-06   1.36497349398098E-31
      4.07066489986434E-06   4.03136457350444E-16
      1.19000000000000E-01
      1.19000000000000E-01   1.19000000000000E-01   0.00000000000000E+00   0.00000000000000E+00   0.00000000000000E+00
      0.00000000000000E+00   0.00000000000000E+00  -5.33313675552799E-16   0.00000000000000E+00   0.00000000000000E+00
      0.00000000000000E+00   0.00000000000000E+00  -5.28588031929058E-06   2.53456684082967E-30  -5.28588031929058E-06
      3.49863433999259E-16   0.00000000000000E+00   0.00000000000000E+00   0.00000000000000E+00   0.00000000000000E+00
      0.00000000000000E+00   0.00000000000000E+00   0.00000000000000E+00  -2.15288881570006E-16   1.00000000000000E+00
      1.00000000000000E+00   0.00000000000000E+00   0.00000000000000E+00   5.28588031929067E-06   7.22779387238344E-32
      5.28588031929067E-06   3.99474107462934E-16
      1.36000000000000E-01
      1.36000000000000E-01   1.36000000000000E-01   0.00000000000000E+00   0.00000000000000E+00   0.00000000000000E+00
      0.00000000000000E+00   0.00000000000000E+00  -5.23894978753692E-16   0.00000000000000E+00   0.00000000000000E+00
      0.00000000000000E+00   0.00000000000000E+00  -6.76721195759202E-06   1.73776358564683E-30  -6.76721195759202E-06
      3.44353372632699E-16   0.00000000000000E+00   0.00000000000000E+00   0.00000000000000E+00   0.00000000000000E+00
      0.00000000000000E+00   0.00000000000000E+00   0.00000000000000E+00  -2.15314043077116E-16   1.00000000000000E+00
      1.00000000000000E+00   0.00000000000000E+00   0.00000000000000E+00   6.76721195759206E-06   5.49576410029157E-32
      6.76721195759206E-06   3.95786792582083E-16
      1.53000000000000E-01
      1.53000000000000E-01   1.53000000000000E-01   0.00000000000000E+00   0.00000000000000E+00   0.00000000000000E+00
      0.00000000000000E+00   0.00000000000000E+00  -5.14337485862989E-16   0.00000000000000E+00   0.00000000000000E+00
      0.00000000000000E+00   0.00000000000000E+00  -8.54144677987985E-06   1.00694679196056E-30  -8.54144677987985E-06
      3.38771598286275E-16   0.00000000000000E+00   0.00000000000000E+00   0.00000000000000E+00   0.00000000000000E+00
      0.00000000000000E+00   0.00000000000000E+00   0.00000000000000E+00  -2.15341086412263E-16   1.00000000000000E+00
      1.00000000000000E+00   0.00000000000000E+00   0.00000000000000E+00   8.54144677988009E-06   2.98144575464647E-32
      8.54144677988009E-06   3.92072747593270E-16
      1.70000000000000E-01
      1.70000000000000E-01   1.70000000000000E-01   0.00000000000000E+00   0.00000000000000E+00   0.00000000000000E+00
      0.00000000000000E+00   0.00000000000000E+00  -5.04634232918507E-16   0.00000000000000E+00   0.00000000000000E+00
      0.00000000000000E+00   0.00000000000000E+00  -1.06313720813307E-05   6.89988383213766E-31  -1.06313720813307E-05
      3.33115883796415E-16   0.00000000000000E+00   0.00000000000000E+00   0.00000000000000E+00   0.00000000000000E+00
      0.00000000000000E+00   0.00000000000000E+00   0.00000000000000E+00  -2.15370234761487E-16   1.00000000000000E+00
      1.00000000000000E+00   0.00000000000000E+00   0.00000000000000E+00   1.06313720813310E-05   1.49296929311899E-32
      1.06313720813310E-05   3.88330408721947E-16
      1.87000000000000E-01
      1.87000000000000E-01   1.87000000000000E-01   0.00000000000000E+00   0.00000000000000E+00   0.00000000000000E+00
      0.00000000000000E+00   0.00000000000000E+00  -4.94778609541168E-16   0.00000000000000E+00   0.00000000000000E+00
      0.00000000000000E+00   0.00000000000000E+00  -1.30556137478876E-05   4.10251916580813E-31  -1.30556137478876E-05
      3.27383561336769E-16   0.00000000000000E+00   0.00000000000000E+00   0.00000000000000E+00   0.00000000000000E+00
      0.00000000000000E+00   0.00000000000000E+00   0.00000000000000E+00  -2.15401658164244E-16   1.00000000000000E+00
      1.00000000000000E+00   0.00000000000000E+00   0.00000000000000E+00   1.30556137478881E-05   9.47115829321746E-33
      1.30556137478881E-05   3.84558418603555E-16
      2.04000000000000E-01
      2.04000000000000E-01   2.04000000000000E-01   0.00000000000000E+00   0.00000000000000E+00   0.00000000000000E+00
      0.00000000000000E+00   0.00000000000000E+00  -4.84764261713745E-16   0.00000000000000E+00   0.00000000000000E+00
      0.00000000000000E+00   0.00000000000000E+00  -1.58290022058170E-05   2.75275831742344E-31  -1.58290022058170E-05
      3.21571516724868E-16   0.00000000000000E+00   0.00000000000000E+00   0.00000000000000E+00   0.00000000000000E+00
      0.00000000000000E+00   0.00000000000000E+00   0.00000000000000E+00  -2.15435478936693E-16   1.00000000000000E+00
      1.00000000000000E+00   0.00000000000000E+00   0.00000000000000E+00   1.58290022058179E-05   7.18680456096266E-33
      1.58290022058179E-05   3.80755597003887E-16
      2.21000000000000E-01
      2.21000000000000E-01   2.21000000000000E-01   0.00000000000000E+00   0.00000000000000E+00   0.00000000000000E+00
      0.00000000000000E+00   0.00000000000000E+00  -4.74584921152896E-16   0.00000000000000E+00   0.00000000000000E+00
      0.00000000000000E+00   0.00000000000000E+00  -1.89634786219407E-05   1.70802789833226E-31  -1.89634786219407E-05
      3.15676217724675E-16   0.00000000000000E+00   0.00000000000000E+00   0.00000000000000E+00   0.00000000000000E+00
      0.00000000000000E+00   0.00000000000000E+00   0.00000000000000E+00  -2.15471781863140E-16   1.00000000000000E+00
      1.00000000000000E+00   0.00000000000000E+00   0.00000000000000E+00   1.89634786219402E-05   3.54110873754488E-33
      1.89634786219402E-05   3.76920880037742E-16
      2.38000000000000E-01
      2.38000000000000E-01   2.38000000000000E-01   0.00000000000000E+00   0.00000000000000E+00   0.00000000000000E+00
      0.00000000000000E+00   0.00000000000000E+00  -4.64234211065047E-16   0.00000000000000E+00   0.00000000000000E+00
      0.00000000000000E+00   0.00000000000000E+00  -2.24692684856807E-05   9.95787895774383E-32  -2.24692684856807E-05
      3.09693776834366E-16   0.00000000000000E+00   0.00000000000000E+00   0.00000000000000E+00   0.00000000000000E+00
      0.00000000000000E+00   0.00000000000000E+00   0.00000000000000E+00  -2.15510626275468E-16   1.00000000000000E+00
      1.00000000000000E+00   0.00000000000000E+00   0.00000000000000E+00   2.24692684856810E-05   2.11415492924359E-33
      2.24692684856810E-05   3.73053238153867E-16
      2.55000000000000E-01
      2.55000000000000E-01   2.55000000000000E-01   0.00000000000000E+00   0.00000000000000E+00   0.00000000000000E+00
      0.00000000000000E+00   0.00000000000000E+00  -4.53705467522393E-16   0.00000000000000E+00   0.00000000000000E+00
      0.00000000000000E+00   0.00000000000000E+00  -2.63561121618762E-05   6.76007952113184E-32  -2.63561121618762E-05
      3.03620045402721E-16   0.00000000000000E+00   0.00000000000000E+00   0.00000000000000E+00   0.00000000000000E+00
      0.00000000000000E+00   0.00000000000000E+00   0.00000000000000E+00  -2.15552058911638E-16   1.00000000000000E+00
      1.00000000000000E+00   0.00000000000000E+00   0.00000000000000E+00   2.63561121618758E-05   1.81547632073514E-33
      2.63561121618758E-05   3.69151586551444E-16
      2.72000000000000E-01
      2.72000000000000E-01   2.72000000000000E-01   0.00000000000000E+00   0.00000000000000E+00   0.00000000000000E+00
      0.00000000000000E+00   0.00000000000000E+00  -4.42991564312932E-16   0.00000000000000E+00   0.00000000000000E+00
      0.00000000000000E+00   0.00000000000000E+00  -3.06345390597525E-05   4.90494429284777E-32  -3.06345390597525E-05
      2.97450723255967E-16   0.00000000000000E+00   0.00000000000000E+00   0.00000000000000E+00   0.00000000000000E+00
      0.00000000000000E+00   0.00000000000000E+00   0.00000000000000E+00  -2.15596127068639E-16   1.00000000000000E+00
      1.00000000000000E+00   0.00000000000000E+00   0.00000000000000E+00   3.06345390597531E-05   8.62945013746774E-34
      3.06345390597531E-05   3.65214689574559E-16
      2.89000000000000E-01
      2.89000000000000E-01   2.89000000000000E-01   0.00000000000000E+00   0.00000000000000E+00   0.00000000000000E+00
      0.00000000000000E+00   0.00000000000000E+00  -4.32084756706048E-16   0.00000000000000E+00   0.00000000000000E+00
      0.00000000000000E+00   0.00000000000000E+00  -3.53170633712563E-05   3.41322073567212E-32  -3.53170633712563E-05
      2.91181476034225E-16   0.00000000000000E+00   0.00000000000000E+00   0.00000000000000E+00   0.00000000000000E+00
      0.00000000000000E+00   0.00000000000000E+00   0.00000000000000E+00  -2.15642890137771E-16   1.00000000000000E+00
      1.00000000000000E+00   0.00000000000000E+00   0.00000000000000E+00   3.53170633712566E-05   3.94627882917348E-34
      3.53170633712566E-05   3.61241064163720E-16
      3.06000000000000E-01
      3.06000000000000E-01   3.06000000000000E-01   0.00000000000000E+00   0.00000000000000E+00   0.00000000000000E+00
      0.00000000000000E+00   0.00000000000000E+00  -4.20976582376280E-16   0.00000000000000E+00   0.00000000000000E+00
      0.00000000000000E+00   0.00000000000000E+00  -4.04191222343217E-05   2.21451307620436E-32  -4.04191222343217E-05
      2.84808064782928E-16   0.00000000000000E+00   0.00000000000000E+00   0.00000000000000E+00   0.00000000000000E+00
      0.00000000000000E+00   0.00000000000000E+00   0.00000000000000E+00  -2.15692428622218E-16   1.00000000000000E+00
      1.00000000000000E+00   0.00000000000000E+00   0.00000000000000E+00   4.04191222343204E-05   2.16159378226808E-34
      4.04191222343204E-05   3.57228891010352E-16
      3.23000000000000E-01
      3.23000000000000E-01   3.23000000000000E-01   0.00000000000000E+00   0.00000000000000E+00   0.00000000000000E+00
      0.00000000000000E+00   0.00000000000000E+00  -4.09657771146596E-16   0.00000000000000E+00   0.00000000000000E+00
      0.00000000000000E+00   0.00000000000000E+00  -4.59599823221519E-05   1.49684086719150E-32  -4.59599823221519E-05
      2.78326487540132E-16   0.00000000000000E+00   0.00000000000000E+00   0.00000000000000E+00   0.00000000000000E+00
      0.00000000000000E+00   0.00000000000000E+00   0.00000000000000E+00  -2.15744854902724E-16   1.00000000000000E+00
      1.00000000000000E+00   0.00000000000000E+00   0.00000000000000E+00   4.59599823221517E-05   2.16452994867227E-34
      4.59599823221517E-05   3.53175918187731E-16
      3.40000000000000E-01
      3.40000000000000E-01   3.40000000000000E-01   0.00000000000000E+00   0.00000000000000E+00   0.00000000000000E+00
      0.00000000000000E+00   0.00000000000000E+00  -3.98118194312419E-16   0.00000000000000E+00   0.00000000000000E+00
      0.00000000000000E+00   0.00000000000000E+00  -5.19633906015483E-05   1.06060644395284E-32  -5.19633906015483E-05
      2.71733094485808E-16   0.00000000000000E+00   0.00000000000000E+00   0.00000000000000E+00   0.00000000000000E+00
      0.00000000000000E+00   0.00000000000000E+00   0.00000000000000E+00  -2.15800315457582E-16   1.00000000000000E+00
      1.00000000000000E+00   0.00000000000000E+00   0.00000000000000E+00   5.19633906015481E-05   1.16926234963128E-34
      5.19633906015481E-05   3.49079384543032E-16
      3.57000000000000E-01
      3.57000000000000E-01   3.57000000000000E-01   0.00000000000000E+00   0.00000000000000E+00   0.00000000000000E+00
      0.00000000000000E+00   0.00000000000000E+00  -3.86346850090946E-16   0.00000000000000E+00   0.00000000000000E+00
      0.00000000000000E+00   0.00000000000000E+00  -5.84581117120533E-05   7.52163950241170E-33  -5.84581117120533E-05
      2.65024740095231E-16   0.00000000000000E+00   0.00000000000000E+00   0.00000000000000E+00   0.00000000000000E+00
      0.00000000000000E+00   0.00000000000000E+00   0.00000000000000E+00  -2.15858998988425E-16   1.00000000000000E+00
      1.00000000000000E+00   0.00000000000000E+00   0.00000000000000E+00   5.84581117120543E-05   6.20659484066635E-35
      5.84581117120543E-05   3.44935926305961E-16
      3.74000000000000E-01
      3.74000000000000E-01   3.74000000000000E-01   0.00000000000000E+00   0.00000000000000E+00   0.00000000000000E+00
      0.00000000000000E+00   0.00000000000000E+00  -3.74331930335786E-16   0.00000000000000E+00   0.00000000000000E+00
      0.00000000000000E+00   0.00000000000000E+00  -6.54780907949028E-05   6.83386692084955E-33  -6.54780907949028E-05
      2.58198924191273E-16   0.00000000000000E+00   0.00000000000000E+00   0.00000000000000E+00   0.00000000000000E+00
      0.00000000000000E+00   0.00000000000000E+00   0.00000000000000E+00  -2.15921137962578E-16   1.00000000000000E+00
      1.00000000000000E+00   0.00000000000000E+00   0.00000000000000E+00   6.54780907949039E-05   4.39141064396051E-35
      6.54780907949039E-05   3.40741509532783E-16
      3.91000000000000E-01
      3.91000000000000E-01   3.91000000000000E-01   0.00000000000000E+00   0.00000000000000E+00   0.00000000000000E+00
      0.00000000000000E+00   0.00000000000000E+00  -3.62060879110940E-16   0.00000000000000E+00   0.00000000000000E+00
      0.00000000000000E+00   0.00000000000000E+00  -7.30627037951649E-05   4.66652929887422E-33  -7.30627037951649E-05
      2.51253928432031E-16   0.00000000000000E+00   0.00000000000000E+00   0.00000000000000E+00   0.00000000000000E+00
      0.00000000000000E+00   0.00000000000000E+00   0.00000000000000E+00  -2.15987009492884E-16   1.00000000000000E+00
      1.00000000000000E+00   0.00000000000000E+00   0.00000000000000E+00   7.30627037951660E-05   3.80471970485860E-35
      7.30627037951660E-05   3.36491355195113E-16
      4.08000000000000E-01
      4.08000000000000E-01   4.08000000000000E-01   0.00000000000000E+00   0.00000000000000E+00   0.00000000000000E+00
      0.00000000000000E+00   0.00000000000000E+00  -3.49520518640101E-16   0.00000000000000E+00   0.00000000000000E+00
      0.00000000000000E+00   0.00000000000000E+00  -8.12568396122111E-05   4.15989669338110E-33  -8.12568396122111E-05
      2.44188975248724E-16   0.00000000000000E+00   0.00000000000000E+00   0.00000000000000E+00   0.00000000000000E+00
      0.00000000000000E+00   0.00000000000000E+00   0.00000000000000E+00  -2.16056935977258E-16   1.00000000000000E+00
      1.00000000000000E+00   0.00000000000000E+00   0.00000000000000E+00   8.12568396122100E-05   2.68158063218868E-35
      8.12568396122100E-05   3.32179869049584E-16
      4.25000000000000E-01
      4.25000000000000E-01   4.25000000000000E-01   0.00000000000000E+00   0.00000000000000E+00   0.00000000000000E+00
      0.00000000000000E+00   0.00000000000000E+00  -3.36697157737130E-16   0.00000000000000E+00   0.00000000000000E+00
      0.00000000000000E+00   0.00000000000000E+00  -9.01114367377423E-05   3.08177818282416E-33  -9.01114367377423E-05
      2.37004444786440E-16   0.00000000000000E+00   0.00000000000000E+00   0.00000000000000E+00   0.00000000000000E+00
      0.00000000000000E+00   0.00000000000000E+00   0.00000000000000E+00  -2.16131290280127E-16   1.00000000000000E+00
      1.00000000000000E+00   0.00000000000000E+00   0.00000000000000E+00   9.01114367377413E-05   1.63907262191062E-35
      9.01114367377413E-05   3.27800542103167E-16
      4.42000000000000E-01
      4.42000000000000E-01   4.42000000000000E-01   0.00000000000000E+00   0.00000000000000E+00   0.00000000000000E+00
      0.00000000000000E+00   0.00000000000000E+00  -3.23576317690184E-16   0.00000000000000E+00   0.00000000000000E+00
      0.00000000000000E+00   0.00000000000000E+00  -9.96864342532627E-05   2.51007304647603E-33  -9.96864342532627E-05
      2.29702191962693E-16   0.00000000000000E+00   0.00000000000000E+00   0.00000000000000E+00   0.00000000000000E+00
      0.00000000000000E+00   0.00000000000000E+00   0.00000000000000E+00  -2.16210512865381E-16   1.00000000000000E+00
      1.00000000000000E+00   0.00000000000000E+00   0.00000000000000E+00   9.96864342532641E-05   9.93816030178178E-36
      9.96864342532641E-05   3.23345688936738E-16
      4.59000000000000E-01
      4.59000000000000E-01   4.59000000000000E-01   0.00000000000000E+00   0.00000000000000E+00   0.00000000000000E+00
      0.00000000000000E+00   0.00000000000000E+00  -3.10141314050524E-16   0.00000000000000E+00   0.00000000000000E+00
      0.00000000000000E+00   0.00000000000000E+00  -1.10061508596712E-04   2.23682600476591E-33  -1.10061508596712E-04
      2.22286402332388E-16   0.00000000000000E+00   0.00000000000000E+00   0.00000000000000E+00   0.00000000000000E+00
      0.00000000000000E+00   0.00000000000000E+00   0.00000000000000E+00  -2.16295183871534E-16   1.00000000000000E+00
      1.00000000000000E+00   0.00000000000000E+00   0.00000000000000E+00   1.10061508596711E-04   6.38671615192126E-36
      1.10061508596711E-04   3.18805619576822E-16
      4.76000000000000E-01
      4.76000000000000E-01   4.76000000000000E-01   0.00000000000000E+00   0.00000000000000E+00   0.00000000000000E+00
      0.00000000000000E+00   0.00000000000000E+00  -2.96371787453347E-16   0.00000000000000E+00   0.00000000000000E+00
      0.00000000000000E+00   0.00000000000000E+00  -1.21349988583544E-04   2.25234994862379E-33  -1.21349988583544E-04
      2.14765237932134E-16   0.00000000000000E+00   0.00000000000000E+00   0.00000000000000E+00   0.00000000000000E+00
      0.00000000000000E+00   0.00000000000000E+00   0.00000000000000E+00  -2.16386119867678E-16   1.00000000000000E+00
      1.00000000000000E+00   0.00000000000000E+00   0.00000000000000E+00   1.21349988583543E-04   4.11513097741035E-36
      1.21349988583543E-04   3.14167432166729E-16
      4.93000000000000E-01
      4.93000000000000E-01   4.93000000000000E-01   0.00000000000000E+00   0.00000000000000E+00   0.00000000000000E+00
      0.00000000000000E+00   0.00000000000000E+00  -2.82353641495350E-16   0.00000000000000E+00   0.00000000000000E+00
      0.00000000000000E+00   0.00000000000000E+00  -1.33025517281452E-04   1.79066820455891E-33  -1.33025517281452E-04
      2.07112005315706E-16   0.00000000000000E+00   0.00000000000000E+00   0.00000000000000E+00   0.00000000000000E+00
      0.00000000000000E+00   0.00000000000000E+00   0.00000000000000E+00  -2.16479835116897E-16   1.00000000000000E+00
      1.00000000000000E+00   0.00000000000000E+00   0.00000000000000E+00   1.33025517281450E-04   3.03459082829242E-36
      1.33025517281450E-04   3.09463929514896E-16
      5.10000000000000E-01
      5.10000000000000E-01   5.10000000000000E-01   0.00000000000000E+00   0.00000000000000E+00   0.00000000000000E+00
      0.00000000000000E+00   0.00000000000000E+00  -2.68063055509969E-16   0.00000000000000E+00   0.00000000000000E+00
      0.00000000000000E+00   0.00000000000000E+00  -1.45137871308782E-04   1.46111432682467E-33  -1.45137871308782E-04
      1.99308469339276E-16   0.00000000000000E+00   0.00000000000000E+00   0.00000000000000E+00   0.00000000000000E+00
      0.00000000000000E+00   0.00000000000000E+00   0.00000000000000E+00  -2.16576506475195E-16   1.00000000000000E+00
      1.00000000000000E+00   0.00000000000000E+00   0.00000000000000E+00   1.45137871308786E-04   2.19411082532895E-36
      1.45137871308786E-04   3.04690199713097E-16
      5.27000000000000E-01
      5.27000000000000E-01   5.27000000000000E-01   0.00000000000000E+00   0.00000000000000E+00   0.00000000000000E+00
      0.00000000000000E+00   0.00000000000000E+00  -2.53468742869053E-16   0.00000000000000E+00   0.00000000000000E+00
      0.00000000000000E+00   0.00000000000000E+00  -1.57867503581794E-04   1.51245323514187E-33  -1.57867503581794E-04
      1.91373045655168E-16   0.00000000000000E+00   0.00000000000000E+00   0.00000000000000E+00   0.00000000000000E+00
      0.00000000000000E+00   0.00000000000000E+00   0.00000000000000E+00  -2.16677991702294E-16   1.00000000000000E+00
      1.00000000000000E+00   0.00000000000000E+00   0.00000000000000E+00   1.57867503581802E-04   2.20166488649466E-36
      1.57867503581802E-04   2.99830200693334E-16
      5.44000000000000E-01
      5.44000000000000E-01   5.44000000000000E-01   0.00000000000000E+00   0.00000000000000E+00   0.00000000000000E+00
      0.00000000000000E+00   0.00000000000000E+00  -2.38560271974229E-16   0.00000000000000E+00   0.00000000000000E+00
      0.00000000000000E+00   0.00000000000000E+00  -1.71260849486250E-04   1.02541091048208E-33  -1.71260849486250E-04
      1.83318951073028E-16   0.00000000000000E+00   0.00000000000000E+00   0.00000000000000E+00   0.00000000000000E+00
      0.00000000000000E+00   0.00000000000000E+00   0.00000000000000E+00  -2.16783901108821E-16   1.00000000000000E+00
      1.00000000000000E+00   0.00000000000000E+00   0.00000000000000E+00   1.71260849486252E-04   1.63783343544524E-36
      1.71260849486252E-04   2.94876946212659E-16
      5.61000000000000E-01
      5.61000000000000E-01   5.61000000000000E-01   0.00000000000000E+00   0.00000000000000E+00   0.00000000000000E+00
      0.00000000000000E+00   0.00000000000000E+00  -2.23339822531774E-16   0.00000000000000E+00   0.00000000000000E+00
      0.00000000000000E+00   0.00000000000000E+00  -1.85317621075835E-04   8.87813792034094E-34  -1.85317621075835E-04
      1.75154747655341E-16   0.00000000000000E+00   0.00000000000000E+00   0.00000000000000E+00   0.00000000000000E+00
      0.00000000000000E+00   0.00000000000000E+00   0.00000000000000E+00  -2.16894448470492E-16   1.00000000000000E+00
      1.00000000000000E+00   0.00000000000000E+00   0.00000000000000E+00   1.85317621075836E-04   1.24081159494166E-36
      1.85317621075836E-04   2.89827014795319E-16
      5.78000000000000E-01
      5.78000000000000E-01   5.78000000000000E-01   0.00000000000000E+00   0.00000000000000E+00   0.00000000000000E+00
      0.00000000000000E+00   0.00000000000000E+00  -2.07812039779894E-16   0.00000000000000E+00   0.00000000000000E+00
      0.00000000000000E+00   0.00000000000000E+00  -2.00023970545311E-04   8.25250701545779E-34  -2.00023970545311E-04
      1.66885809864979E-16   0.00000000000000E+00   0.00000000000000E+00   0.00000000000000E+00   0.00000000000000E+00
      0.00000000000000E+00   0.00000000000000E+00   0.00000000000000E+00  -2.17009645437764E-16   1.00000000000000E+00
      1.00000000000000E+00   0.00000000000000E+00   0.00000000000000E+00   2.00023970545311E-04   7.31029073984311E-37
      2.00023970545311E-04   2.84678392055317E-16
      5.95000000000000E-01
      5.95000000000000E-01   5.95000000000000E-01   0.00000000000000E+00   0.00000000000000E+00   0.00000000000000E+00
      0.00000000000000E+00   0.00000000000000E+00  -1.91983749879345E-16   0.00000000000000E+00   0.00000000000000E+00
      0.00000000000000E+00   0.00000000000000E+00  -2.15356335588156E-04   6.59197608187664E-34  -2.15356335588156E-04
      1.58516814189289E-16   0.00000000000000E+00   0.00000000000000E+00   0.00000000000000E+00   0.00000000000000E+00
      0.00000000000000E+00   0.00000000000000E+00   0.00000000000000E+00  -2.17129412392453E-16   1.00000000000000E+00
      1.00000000000000E+00   0.00000000000000E+00   0.00000000000000E+00   2.15356335588159E-04   7.77446134691149E-37
      2.15356335588159E-04   2.79430269808506E-16
      6.12000000000000E-01
      6.12000000000000E-01   6.12000000000000E-01   0.00000000000000E+00   0.00000000000000E+00   0.00000000000000E+00