DF-ISE text

Info {
  version   = 1.0
  type      = xyplot
  datasets  = [
    "time"
    "Ch_con_2 OuterVoltage" "Ch_con_2 InnerVoltage" "Ch_con_2 QuasiFermiPotential" "Ch_con_2 DisplacementCurrent" "Ch_con_2 eCurrent"
    "Ch_con_2 hCurrent" "Ch_con_2 TotalCurrent" "Ch_con_2 Charge" "Ls_con OuterVoltage" "Ls_con InnerVoltage"
    "Ls_con QuasiFermiPotential" "Ls_con DisplacementCurrent" "Ls_con eCurrent" "Ls_con hCurrent" "Ls_con TotalCurrent"
    "Ls_con Charge" "Ls_ext_con_1 OuterVoltage" "Ls_ext_con_1 InnerVoltage" "Ls_ext_con_1 QuasiFermiPotential" "Ls_ext_con_1 DisplacementCurrent"
    "Ls_ext_con_1 eCurrent" "Ls_ext_con_1 hCurrent" "Ls_ext_con_1 TotalCurrent" "Ls_ext_con_1 Charge" "Ld_con OuterVoltage"
    "Ld_con InnerVoltage" "Ld_con QuasiFermiPotential" "Ld_con DisplacementCurrent" "Ld_con eCurrent" "Ld_con hCurrent"
    "Ld_con TotalCurrent" "Ld_con Charge" ]
  functions = [
    Time
    OuterVoltage InnerVoltage QuasiFermiPotential DisplacementCurrent eCurrent
    hCurrent TotalCurrent Charge OuterVoltage InnerVoltage
    QuasiFermiPotential DisplacementCurrent eCurrent hCurrent TotalCurrent
    Charge OuterVoltage InnerVoltage QuasiFermiPotential DisplacementCurrent
    eCurrent hCurrent TotalCurrent Charge OuterVoltage
    InnerVoltage QuasiFermiPotential DisplacementCurrent eCurrent hCurrent
    TotalCurrent Charge ]
}

Data {
      0.00000000000000E+00
      0.00000000000000E+00   0.00000000000000E+00   0.00000000000000E+00   0.00000000000000E+00   0.00000000000000E+00
      0.00000000000000E+00   0.00000000000000E+00  -3.16448411128337E-16   0.00000000000000E+00   0.00000000000000E+00
      0.00000000000000E+00   0.00000000000000E+00  -6.71598618817617E-11  -3.43606131918336E-26  -6.71598618817617E-11
      1.86147471298661E-16   0.00000000000000E+00   0.00000000000000E+00   0.00000000000000E+00   0.00000000000000E+00
      0.00000000000000E+00   0.00000000000000E+00   0.00000000000000E+00  -1.12367271282542E-16   1.00000000000000E+00
      1.00000000000000E+00   0.00000000000000E+00   0.00000000000000E+00   6.71598618817617E-11  -2.01327124821026E-28
      6.71598618817617E-11   2.42739064769798E-16
      1.70000000000000E-02
      1.70000000000000E-02   1.70000000000000E-02   0.00000000000000E+00   0.00000000000000E+00   0.00000000000000E+00
      0.00000000000000E+00   0.00000000000000E+00  -3.11279800433477E-16   0.00000000000000E+00   0.00000000000000E+00
      0.00000000000000E+00   0.00000000000000E+00  -1.10150287627810E-10  -2.01981888721448E-26  -1.10150287627810E-10
      1.84442268707498E-16   0.00000000000000E+00   0.00000000000000E+00   0.00000000000000E+00   0.00000000000000E+00
      0.00000000000000E+00   0.00000000000000E+00   0.00000000000000E+00  -1.13495895505150E-16   1.00000000000000E+00
      1.00000000000000E+00   0.00000000000000E+00   0.00000000000000E+00   1.10150287641495E-10  -1.13687151548338E-28
      1.10150287641495E-10   2.40404294737848E-16
      3.40000000000000E-02
      3.40000000000000E-02   3.40000000000000E-02   0.00000000000000E+00   0.00000000000000E+00   0.00000000000000E+00
      0.00000000000000E+00   0.00000000000000E+00  -3.06111128312626E-16   0.00000000000000E+00   0.00000000000000E+00
      0.00000000000000E+00   0.00000000000000E+00  -1.80050452823624E-10  -1.20065092639339E-26  -1.80050452823624E-10
      1.82736988837769E-16   0.00000000000000E+00   0.00000000000000E+00   0.00000000000000E+00   0.00000000000000E+00
      0.00000000000000E+00   0.00000000000000E+00   0.00000000000000E+00  -1.14624493518631E-16   1.00000000000000E+00
      1.00000000000000E+00   0.00000000000000E+00   0.00000000000000E+00   1.80050452839056E-10  -6.95303376497500E-29
      1.80050452839056E-10   2.38069522852503E-16
      5.10000000000000E-02
      5.10000000000000E-02   5.10000000000000E-02   0.00000000000000E+00   0.00000000000000E+00   0.00000000000000E+00
      0.00000000000000E+00   0.00000000000000E+00  -3.00942366960678E-16   0.00000000000000E+00   0.00000000000000E+00
      0.00000000000000E+00   0.00000000000000E+00  -2.93258933360007E-10  -7.44653861336607E-27  -2.93258933360007E-10
      1.81031599995837E-16   0.00000000000000E+00   0.00000000000000E+00   0.00000000000000E+00   0.00000000000000E+00
      0.00000000000000E+00   0.00000000000000E+00   0.00000000000000E+00  -1.15753055196173E-16   1.00000000000000E+00
      1.00000000000000E+00   0.00000000000000E+00   0.00000000000000E+00   2.93258933389709E-10  -3.57292001498559E-29
      2.93258933389709E-10   2.35734747989355E-16
      6.80000000000000E-02
      6.80000000000000E-02   6.80000000000000E-02   0.00000000000000E+00   0.00000000000000E+00   0.00000000000000E+00
      0.00000000000000E+00   0.00000000000000E+00  -2.95773474478752E-16   0.00000000000000E+00   0.00000000000000E+00
      0.00000000000000E+00   0.00000000000000E+00  -4.75883783255558E-10  -4.48186623226996E-27  -4.75883783255558E-10
      1.79326055690383E-16   0.00000000000000E+00   0.00000000000000E+00   0.00000000000000E+00   0.00000000000000E+00
      0.00000000000000E+00   0.00000000000000E+00   0.00000000000000E+00  -1.16881566007834E-16   1.00000000000000E+00
      1.00000000000000E+00   0.00000000000000E+00   0.00000000000000E+00   4.75883783312608E-10  -2.03817466238908E-29
      4.75883783312608E-10   2.33399968315762E-16
      8.50000000000000E-02
      8.50000000000000E-02   8.50000000000000E-02   0.00000000000000E+00   0.00000000000000E+00   0.00000000000000E+00
      0.00000000000000E+00   0.00000000000000E+00  -2.90604387505994E-16   0.00000000000000E+00   0.00000000000000E+00
      0.00000000000000E+00   0.00000000000000E+00  -7.69339828805181E-10  -2.70681075680892E-27  -7.69339828805181E-10
      1.77620287399666E-16   0.00000000000000E+00   0.00000000000000E+00   0.00000000000000E+00   0.00000000000000E+00
      0.00000000000000E+00   0.00000000000000E+00   0.00000000000000E+00  -1.18010005015353E-16   1.00000000000000E+00
      1.00000000000000E+00   0.00000000000000E+00   0.00000000000000E+00   7.69339828900286E-10  -1.12742416421372E-29
      7.69339828900286E-10   2.31065180862082E-16
      1.02000000000000E-01
      1.02000000000000E-01   1.02000000000000E-01   0.00000000000000E+00   0.00000000000000E+00   0.00000000000000E+00
      0.00000000000000E+00   0.00000000000000E+00  -2.85435009938095E-16   0.00000000000000E+00   0.00000000000000E+00
      0.00000000000000E+00   0.00000000000000E+00  -1.23900784337963E-09  -1.65361667510820E-27  -1.23900784337963E-09
      1.75914193653747E-16   0.00000000000000E+00   0.00000000000000E+00   0.00000000000000E+00   0.00000000000000E+00
      0.00000000000000E+00   0.00000000000000E+00   0.00000000000000E+00  -1.19138341919033E-16   1.00000000000000E+00
      1.00000000000000E+00   0.00000000000000E+00   0.00000000000000E+00   1.23900784356649E-09  -6.31660869574179E-30
      1.23900784356649E-09   2.28730380847974E-16
      1.19000000000000E-01
      1.19000000000000E-01   1.19000000000000E-01   0.00000000000000E+00   0.00000000000000E+00   0.00000000000000E+00
      0.00000000000000E+00   0.00000000000000E+00  -2.80265195434064E-16   0.00000000000000E+00   0.00000000000000E+00
      0.00000000000000E+00   0.00000000000000E+00  -1.98807253824071E-09  -9.91801926655307E-28  -1.98807253824071E-09
      1.74207623474182E-16   0.00000000000000E+00   0.00000000000000E+00   0.00000000000000E+00   0.00000000000000E+00
      0.00000000000000E+00   0.00000000000000E+00   0.00000000000000E+00  -1.20266532675823E-16   1.00000000000000E+00
      1.00000000000000E+00   0.00000000000000E+00   0.00000000000000E+00   1.98807253851477E-09  -3.23719711157056E-30
      1.98807253851477E-09   2.26395560590047E-16
      1.36000000000000E-01
      1.36000000000000E-01   1.36000000000000E-01   0.00000000000000E+00   0.00000000000000E+00   0.00000000000000E+00
      0.00000000000000E+00   0.00000000000000E+00  -2.75094720486413E-16   0.00000000000000E+00   0.00000000000000E+00
      0.00000000000000E+00   0.00000000000000E+00  -3.17893758879589E-09  -6.17083346244956E-28  -3.17893758879589E-09
      1.72500351197660E-16   0.00000000000000E+00   0.00000000000000E+00   0.00000000000000E+00   0.00000000000000E+00
      0.00000000000000E+00   0.00000000000000E+00   0.00000000000000E+00  -1.21394513007797E-16   1.00000000000000E+00
      1.00000000000000E+00   0.00000000000000E+00   0.00000000000000E+00   3.17893758920332E-09  -1.73891674350688E-30
      3.17893758920332E-09   2.24060707785558E-16
      1.53000000000000E-01
      1.53000000000000E-01   1.53000000000000E-01   0.00000000000000E+00   0.00000000000000E+00   0.00000000000000E+00
      0.00000000000000E+00   0.00000000000000E+00  -2.69923242480044E-16   0.00000000000000E+00   0.00000000000000E+00
      0.00000000000000E+00   0.00000000000000E+00  -5.06734076305826E-09  -3.80658872524330E-28  -5.06734076305826E-09
      1.70792038020752E-16   0.00000000000000E+00   0.00000000000000E+00   0.00000000000000E+00   0.00000000000000E+00
      0.00000000000000E+00   0.00000000000000E+00   0.00000000000000E+00  -1.22522188711888E-16   1.00000000000000E+00
      1.00000000000000E+00   0.00000000000000E+00   0.00000000000000E+00   5.06734076368327E-09  -1.03803212491572E-30
      5.06734076368327E-09   2.21725802739633E-16
      1.70000000000000E-01
      1.70000000000000E-01   1.70000000000000E-01   0.00000000000000E+00   0.00000000000000E+00   0.00000000000000E+00
      0.00000000000000E+00   0.00000000000000E+00  -2.64750234357218E-16   0.00000000000000E+00   0.00000000000000E+00
      0.00000000000000E+00   0.00000000000000E+00  -8.05651434936356E-09  -2.32518785608051E-28  -8.05651434936356E-09
      1.69082173187211E-16   0.00000000000000E+00   0.00000000000000E+00   0.00000000000000E+00   0.00000000000000E+00
      0.00000000000000E+00   0.00000000000000E+00   0.00000000000000E+00  -1.23649421194620E-16   1.00000000000000E+00
      1.00000000000000E+00   0.00000000000000E+00   0.00000000000000E+00   8.05651434998132E-09  -6.22853442398007E-31
      8.05651434998132E-09   2.19390813898602E-16
      1.87000000000000E-01
      1.87000000000000E-01   1.87000000000000E-01   0.00000000000000E+00   0.00000000000000E+00   0.00000000000000E+00
      0.00000000000000E+00   0.00000000000000E+00  -2.59574882801762E-16   0.00000000000000E+00   0.00000000000000E+00
      0.00000000000000E+00   0.00000000000000E+00  -1.27828971103974E-08  -1.45776969233742E-28  -1.27828971103974E-08
      1.67369983902574E-16   0.00000000000000E+00   0.00000000000000E+00   0.00000000000000E+00   0.00000000000000E+00
      0.00000000000000E+00   0.00000000000000E+00   0.00000000000000E+00  -1.24776005859200E-16   1.00000000000000E+00
      1.00000000000000E+00   0.00000000000000E+00   0.00000000000000E+00   1.27828971114116E-08  -3.18264309867580E-31
      1.27828971114116E-08   2.17055690676354E-16
      2.04000000000000E-01
      2.04000000000000E-01   2.04000000000000E-01   0.00000000000000E+00   0.00000000000000E+00   0.00000000000000E+00
      0.00000000000000E+00   0.00000000000000E+00  -2.54395928217983E-16   0.00000000000000E+00   0.00000000000000E+00
      0.00000000000000E+00   0.00000000000000E+00  -2.02550879765378E-08  -8.86994417319599E-29  -2.02550879765378E-08
      1.65654297108740E-16   0.00000000000000E+00   0.00000000000000E+00   0.00000000000000E+00   0.00000000000000E+00
      0.00000000000000E+00   0.00000000000000E+00   0.00000000000000E+00  -1.25901639674156E-16   1.00000000000000E+00
      1.00000000000000E+00   0.00000000000000E+00   0.00000000000000E+00   2.02550879771689E-08  -1.81772265332942E-31
      2.02550879771689E-08   2.14720351655590E-16
      2.21000000000000E-01
      2.21000000000000E-01   2.21000000000000E-01   0.00000000000000E+00   0.00000000000000E+00   0.00000000000000E+00
      0.00000000000000E+00   0.00000000000000E+00  -2.49211416517492E-16   0.00000000000000E+00   0.00000000000000E+00
      0.00000000000000E+00   0.00000000000000E+00  -3.20726655322097E-08  -5.41324712927500E-29  -3.20726655322097E-08
      1.63933329071493E-16   0.00000000000000E+00   0.00000000000000E+00   0.00000000000000E+00   0.00000000000000E+00
      0.00000000000000E+00   0.00000000000000E+00   0.00000000000000E+00  -1.27025873140028E-16   1.00000000000000E+00
      1.00000000000000E+00   0.00000000000000E+00   0.00000000000000E+00   3.20726655324342E-08  -9.55054792442285E-32
      3.20726655324342E-08   2.12384665704925E-16
      2.38000000000000E-01
      2.38000000000000E-01   2.38000000000000E-01   0.00000000000000E+00   0.00000000000000E+00   0.00000000000000E+00
      0.00000000000000E+00   0.00000000000000E+00  -2.44018309035488E-16   0.00000000000000E+00   0.00000000000000E+00
      0.00000000000000E+00   0.00000000000000E+00  -5.07799485732283E-08  -3.29221021720595E-29  -5.07799485732283E-08
      1.62204362284259E-16   0.00000000000000E+00   0.00000000000000E+00   0.00000000000000E+00   0.00000000000000E+00
      0.00000000000000E+00   0.00000000000000E+00   0.00000000000000E+00  -1.28148038136977E-16   1.00000000000000E+00
      1.00000000000000E+00   0.00000000000000E+00   0.00000000000000E+00   5.07799485734182E-08  -5.44595740503904E-32
      5.07799485734182E-08   2.10048420992088E-16
      2.55000000000000E-01
      2.55000000000000E-01   2.55000000000000E-01   0.00000000000000E+00   0.00000000000000E+00   0.00000000000000E+00
      0.00000000000000E+00   0.00000000000000E+00  -2.38811888092819E-16   0.00000000000000E+00   0.00000000000000E+00
      0.00000000000000E+00   0.00000000000000E+00  -8.04190725746019E-08  -2.07534402355323E-29  -8.04190725746019E-08
      1.60463266325141E-16   0.00000000000000E+00   0.00000000000000E+00   0.00000000000000E+00   0.00000000000000E+00
      0.00000000000000E+00   0.00000000000000E+00   0.00000000000000E+00  -1.29267144368810E-16   1.00000000000000E+00
      1.00000000000000E+00   0.00000000000000E+00   0.00000000000000E+00   8.04190725747073E-08  -2.75832397855986E-32
      8.04190725747073E-08   2.07711275651009E-16
      2.72000000000000E-01
      2.72000000000000E-01   2.72000000000000E-01   0.00000000000000E+00   0.00000000000000E+00   0.00000000000000E+00
      0.00000000000000E+00   0.00000000000000E+00  -2.33584832513510E-16   0.00000000000000E+00   0.00000000000000E+00
      0.00000000000000E+00   0.00000000000000E+00  -1.27414888321851E-07  -1.25803278112564E-29  -1.27414888321851E-07
      1.58703770789794E-16   0.00000000000000E+00   0.00000000000000E+00   0.00000000000000E+00   0.00000000000000E+00
      0.00000000000000E+00   0.00000000000000E+00   0.00000000000000E+00  -1.30381725651900E-16   1.00000000000000E+00
      1.00000000000000E+00   0.00000000000000E+00   0.00000000000000E+00   1.27414888322047E-07  -1.47132816671987E-32
      1.27414888322047E-07   2.05372677593308E-16
      2.89000000000000E-01
      2.89000000000000E-01   2.89000000000000E-01   0.00000000000000E+00   0.00000000000000E+00   0.00000000000000E+00
      0.00000000000000E+00   0.00000000000000E+00  -2.28325861988212E-16   0.00000000000000E+00   0.00000000000000E+00
      0.00000000000000E+00   0.00000000000000E+00  -2.01918589096797E-07  -7.88205202874641E-30  -2.01918589096797E-07
      1.56916438447333E-16   0.00000000000000E+00   0.00000000000000E+00   0.00000000000000E+00   0.00000000000000E+00
      0.00000000000000E+00   0.00000000000000E+00   0.00000000000000E+00  -1.31489631939125E-16   1.00000000000000E+00
      1.00000000000000E+00   0.00000000000000E+00   0.00000000000000E+00   2.01918589097481E-07  -8.87428118139053E-33
      2.01918589097481E-07   2.03031740104308E-16
      3.06000000000000E-01
      3.06000000000000E-01   3.06000000000000E-01   0.00000000000000E+00   0.00000000000000E+00   0.00000000000000E+00
      0.00000000000000E+00   0.00000000000000E+00  -2.23017763485756E-16   0.00000000000000E+00   0.00000000000000E+00
      0.00000000000000E+00   0.00000000000000E+00  -3.19836588627717E-07  -4.62803483862529E-30  -3.19836588627717E-07
      1.55087224960035E-16   0.00000000000000E+00   0.00000000000000E+00   0.00000000000000E+00   0.00000000000000E+00
      0.00000000000000E+00   0.00000000000000E+00   0.00000000000000E+00  -1.32587748666521E-16   1.00000000000000E+00
      1.00000000000000E+00   0.00000000000000E+00   0.00000000000000E+00   3.19836588630067E-07  -5.06569421521250E-33
      3.19836588630067E-07   2.00687050020800E-16
      3.23000000000000E-01
      3.23000000000000E-01   3.23000000000000E-01   0.00000000000000E+00   0.00000000000000E+00   0.00000000000000E+00
      0.00000000000000E+00   0.00000000000000E+00  -2.17634674746018E-16   0.00000000000000E+00   0.00000000000000E+00
      0.00000000000000E+00   0.00000000000000E+00  -5.05824305598746E-07  -3.05949679361758E-30  -5.05824305598746E-07
      1.53195631971967E-16   0.00000000000000E+00   0.00000000000000E+00   0.00000000000000E+00   0.00000000000000E+00
      0.00000000000000E+00   0.00000000000000E+00   0.00000000000000E+00  -1.33671656804000E-16   1.00000000000000E+00
      1.00000000000000E+00   0.00000000000000E+00   0.00000000000000E+00   5.05824305610157E-07  -2.75358228117019E-33
      5.05824305610157E-07   1.98336377753739E-16
      3.40000000000000E-01
      3.40000000000000E-01   3.40000000000000E-01   0.00000000000000E+00   0.00000000000000E+00   0.00000000000000E+00
      0.00000000000000E+00   0.00000000000000E+00  -2.12138800862035E-16   0.00000000000000E+00   0.00000000000000E+00
      0.00000000000000E+00   0.00000000000000E+00  -7.97176493706171E-07  -1.88136885234128E-30  -7.97176493706171E-07
      1.51212680391204E-16   0.00000000000000E+00   0.00000000000000E+00   0.00000000000000E+00   0.00000000000000E+00
      0.00000000000000E+00   0.00000000000000E+00   0.00000000000000E+00  -1.34735303958618E-16   1.00000000000000E+00
      1.00000000000000E+00   0.00000000000000E+00   0.00000000000000E+00   7.97176493790743E-07  -1.60081089123775E-33
      7.97176493790743E-07   1.95976285986789E-16
      3.57000000000000E-01
      3.57000000000000E-01   3.57000000000000E-01   0.00000000000000E+00   0.00000000000000E+00   0.00000000000000E+00
      0.00000000000000E+00   0.00000000000000E+00  -2.06476874112789E-16   0.00000000000000E+00   0.00000000000000E+00
      0.00000000000000E+00   0.00000000000000E+00  -1.24859341296084E-06  -1.16100074379405E-30  -1.24859341296084E-06
      1.49099113140946E-16   0.00000000000000E+00   0.00000000000000E+00   0.00000000000000E+00   0.00000000000000E+00
      0.00000000000000E+00   0.00000000000000E+00   0.00000000000000E+00  -1.35770781863865E-16   1.00000000000000E+00
      1.00000000000000E+00   0.00000000000000E+00   0.00000000000000E+00   1.24859341296082E-06  -9.12103072117195E-34
      1.24859341296082E-06   1.93601628322706E-16
      3.74000000000000E-01
      3.74000000000000E-01   3.74000000000000E-01   0.00000000000000E+00   0.00000000000000E+00   0.00000000000000E+00
      0.00000000000000E+00   0.00000000000000E+00  -2.00577795055364E-16   0.00000000000000E+00   0.00000000000000E+00
      0.00000000000000E+00   0.00000000000000E+00  -1.93656239836385E-06  -6.98713085351225E-31  -1.93656239836385E-06
      1.46805040198879E-16   0.00000000000000E+00   0.00000000000000E+00   0.00000000000000E+00   0.00000000000000E+00
      0.00000000000000E+00   0.00000000000000E+00   0.00000000000000E+00  -1.36768482143964E-16   1.00000000000000E+00
      1.00000000000000E+00   0.00000000000000E+00   0.00000000000000E+00   1.93656239836388E-06  -5.31373591437143E-34
      1.93656239836388E-06   1.91205040305336E-16
      3.91000000000000E-01
      3.91000000000000E-01   3.91000000000000E-01   0.00000000000000E+00   0.00000000000000E+00   0.00000000000000E+00
      0.00000000000000E+00   0.00000000000000E+00  -1.94354163565381E-16   0.00000000000000E+00   0.00000000000000E+00
      0.00000000000000E+00   0.00000000000000E+00  -2.95827315439682E-06  -4.47274568253018E-31  -2.95827315439682E-06
      1.44271919602205E-16   0.00000000000000E+00   0.00000000000000E+00   0.00000000000000E+00   0.00000000000000E+00
      0.00000000000000E+00   0.00000000000000E+00   0.00000000000000E+00  -1.37717860243927E-16   1.00000000000000E+00
      1.00000000000000E+00   0.00000000000000E+00   0.00000000000000E+00   2.95827315439686E-06  -2.80822207994433E-34
      2.95827315439686E-06   1.88776898814246E-16
      4.08000000000000E-01
      4.08000000000000E-01   4.08000000000000E-01   0.00000000000000E+00   0.00000000000000E+00   0.00000000000000E+00
      0.00000000000000E+00   0.00000000000000E+00  -1.87708288710258E-16   0.00000000000000E+00   0.00000000000000E+00
      0.00000000000000E+00   0.00000000000000E+00  -4.42580586783072E-06  -2.85013777650152E-31  -4.42580586783072E-06
      1.41437833496850E-16   0.00000000000000E+00   0.00000000000000E+00   0.00000000000000E+00   0.00000000000000E+00
      0.00000000000000E+00   0.00000000000000E+00   0.00000000000000E+00  -1.38608840708916E-16   1.00000000000000E+00
      1.00000000000000E+00   0.00000000000000E+00   0.00000000000000E+00   4.42580586783069E-06  -1.64617922299952E-34
      4.42580586783069E-06   1.86305719322182E-16
      4.25000000000000E-01
      4.25000000000000E-01   4.25000000000000E-01   0.00000000000000E+00   0.00000000000000E+00   0.00000000000000E+00
      0.00000000000000E+00   0.00000000000000E+00  -1.80535456473647E-16   0.00000000000000E+00   0.00000000000000E+00
      0.00000000000000E+00   0.00000000000000E+00  -6.48074996106693E-06  -1.90199228972155E-31  -6.48074996106693E-06
      1.38249226123730E-16   0.00000000000000E+00   0.00000000000000E+00   0.00000000000000E+00   0.00000000000000E+00
      0.00000000000000E+00   0.00000000000000E+00   0.00000000000000E+00  -1.39433627059419E-16   1.00000000000000E+00
      1.00000000000000E+00   0.00000000000000E+00   0.00000000000000E+00   6.48074996106723E-06  -8.59516367019661E-35
      6.48074996106723E-06   1.83776563147758E-16
      4.42000000000000E-01
      4.42000000000000E-01   4.42000000000000E-01   0.00000000000000E+00   0.00000000000000E+00   0.00000000000000E+00
      0.00000000000000E+00   0.00000000000000E+00  -1.72742330843391E-16   0.00000000000000E+00   0.00000000000000E+00
      0.00000000000000E+00   0.00000000000000E+00  -9.26369619736062E-06  -1.22641085447436E-31  -9.26369619736062E-06
      1.34668751201378E-16   0.00000000000000E+00   0.00000000000000E+00   0.00000000000000E+00   0.00000000000000E+00
      0.00000000000000E+00   0.00000000000000E+00   0.00000000000000E+00  -1.40188509389478E-16   1.00000000000000E+00
      1.00000000000000E+00   0.00000000000000E+00   0.00000000000000E+00   9.26369619736052E-06  -6.15313353695919E-35
      9.26369619736052E-06   1.81173764423928E-16
      4.59000000000000E-01
      4.59000000000000E-01   4.59000000000000E-01   0.00000000000000E+00   0.00000000000000E+00   0.00000000000000E+00
      0.00000000000000E+00   0.00000000000000E+00  -1.64258830896367E-16   0.00000000000000E+00   0.00000000000000E+00
      0.00000000000000E+00   0.00000000000000E+00  -1.28980993400485E-05  -8.82576804018665E-32  -1.28980993400485E-05
      1.30681510824213E-16   0.00000000000000E+00   0.00000000000000E+00   0.00000000000000E+00   0.00000000000000E+00
      0.00000000000000E+00   0.00000000000000E+00   0.00000000000000E+00  -1.40874633329268E-16   1.00000000000000E+00
      1.00000000000000E+00   0.00000000000000E+00   0.00000000000000E+00   1.28980993400482E-05  -3.37833688921183E-35
      1.28980993400482E-05   1.78482450394675E-16
      4.76000000000000E-01
      4.76000000000000E-01   4.76000000000000E-01   0.00000000000000E+00   0.00000000000000E+00   0.00000000000000E+00
      0.00000000000000E+00   0.00000000000000E+00  -1.55028888937686E-16   0.00000000000000E+00   0.00000000000000E+00
      0.00000000000000E+00   0.00000000000000E+00  -1.74923643405426E-05  -6.29040935201334E-32  -1.74923643405426E-05
      1.26284107860231E-16   0.00000000000000E+00   0.00000000000000E+00   0.00000000000000E+00   0.00000000000000E+00
      0.00000000000000E+00   0.00000000000000E+00   0.00000000000000E+00  -1.41495335775886E-16   1.00000000000000E+00
      1.00000000000000E+00   0.00000000000000E+00   0.00000000000000E+00   1.74923643405417E-05  -1.72027506202855E-35
      1.74923643405417E-05   1.75688389512490E-16
      4.93000000000000E-01
      4.93000000000000E-01   4.93000000000000E-01   0.00000000000000E+00   0.00000000000000E+00   0.00000000000000E+00
      0.00000000000000E+00   0.00000000000000E+00  -1.45028001374632E-16   0.00000000000000E+00   0.00000000000000E+00
      0.00000000000000E+00   0.00000000000000E+00  -2.31140022869351E-05  -4.56777773764043E-32  -2.31140022869351E-05
      1.21492581026966E-16   0.00000000000000E+00   0.00000000000000E+00   0.00000000000000E+00   0.00000000000000E+00
      0.00000000000000E+00   0.00000000000000E+00   0.00000000000000E+00  -1.42057464183599E-16   1.00000000000000E+00
      1.00000000000000E+00   0.00000000000000E+00   0.00000000000000E+00   2.31140022869344E-05  -1.34895051490879E-35
      2.31140022869344E-05   1.72780635288519E-16
      5.10000000000000E-01
      5.10000000000000E-01   5.10000000000000E-01   0.00000000000000E+00   0.00000000000000E+00   0.00000000000000E+00
      0.00000000000000E+00   0.00000000000000E+00  -1.34252970496758E-16   0.00000000000000E+00   0.00000000000000E+00
      0.00000000000000E+00   0.00000000000000E+00  -2.97946371755880E-05  -3.55419342188306E-32  -2.97946371755880E-05
      1.16332123060616E-16   0.00000000000000E+00   0.00000000000000E+00   0.00000000000000E+00   0.00000000000000E+00
      0.00000000000000E+00   0.00000000000000E+00   0.00000000000000E+00  -1.42568996118772E-16   1.00000000000000E+00
      1.00000000000000E+00   0.00000000000000E+00   0.00000000000000E+00   2.97946371755886E-05  -7.53679143800164E-36
      2.97946371755886E-05   1.69751293585856E-16
      5.27000000000000E-01
      5.27000000000000E-01   5.27000000000000E-01   0.00000000000000E+00   0.00000000000000E+00   0.00000000000000E+00
      0.00000000000000E+00   0.00000000000000E+00  -1.22718226906180E-16   0.00000000000000E+00   0.00000000000000E+00
      0.00000000000000E+00   0.00000000000000E+00  -3.75324154199231E-05  -2.74194428131669E-32  -3.75324154199231E-05
      1.10832718328968E-16   0.00000000000000E+00   0.00000000000000E+00   0.00000000000000E+00   0.00000000000000E+00
      0.00000000000000E+00   0.00000000000000E+00   0.00000000000000E+00  -1.43038129069507E-16   1.00000000000000E+00
      1.00000000000000E+00   0.00000000000000E+00   0.00000000000000E+00   3.75324154199235E-05  -5.29487943761801E-36
      3.75324154199235E-05   1.66595526954042E-16
      5.44000000000000E-01
      5.44000000000000E-01   5.44000000000000E-01   0.00000000000000E+00   0.00000000000000E+00   0.00000000000000E+00
      0.00000000000000E+00   0.00000000000000E+00  -1.10451072789661E-16   0.00000000000000E+00   0.00000000000000E+00
      0.00000000000000E+00   0.00000000000000E+00  -4.62978859524764E-05  -2.03982004693116E-32  -4.62978859524764E-05
      1.05025874489202E-16   0.00000000000000E+00   0.00000000000000E+00   0.00000000000000E+00   0.00000000000000E+00
      0.00000000000000E+00   0.00000000000000E+00   0.00000000000000E+00  -1.43472619519582E-16   1.00000000000000E+00
      1.00000000000000E+00   0.00000000000000E+00   0.00000000000000E+00   4.62978859524783E-05  -3.25755886516677E-36
      4.62978859524783E-05   1.63311237613607E-16
      5.61000000000000E-01
      5.61000000000000E-01   5.61000000000000E-01   0.00000000000000E+00   0.00000000000000E+00   0.00000000000000E+00
      0.00000000000000E+00   0.00000000000000E+00  -9.74875595806816E-17   0.00000000000000E+00   0.00000000000000E+00
      0.00000000000000E+00   0.00000000000000E+00  -5.60411457067340E-05  -1.72075934870030E-32  -5.60411457067340E-05
      9.89426209787118E-17   0.00000000000000E+00   0.00000000000000E+00   0.00000000000000E+00   0.00000000000000E+00
      0.00000000000000E+00   0.00000000000000E+00   0.00000000000000E+00  -1.43879442190277E-16   1.00000000000000E+00
      1.00000000000000E+00   0.00000000000000E+00   0.00000000000000E+00   5.60411457067335E-05  -2.33991468607121E-36
      5.60411457067335E-05   1.59898604741675E-16
      5.78000000000000E-01
      5.78000000000000E-01   5.78000000000000E-01   0.00000000000000E+00   0.00000000000000E+00   0.00000000000000E+00
      0.00000000000000E+00   0.00000000000000E+00  -8.38690741989775E-17   0.00000000000000E+00   0.00000000000000E+00
      0.00000000000000E+00   0.00000000000000E+00  -6.66985939885872E-05  -1.38695335293116E-32  -6.66985939885872E-05
      9.26124571968257E-17   0.00000000000000E+00   0.00000000000000E+00   0.00000000000000E+00   0.00000000000000E+00
      0.00000000000000E+00   0.00000000000000E+00   0.00000000000000E+00  -1.44264656514101E-16   1.00000000000000E+00
      1.00000000000000E+00   0.00000000000000E+00   0.00000000000000E+00   6.66985939885871E-05  -1.74699494951412E-36
      6.66985939885871E-05   1.56359629351166E-16
      5.95000000000000E-01
      5.95000000000000E-01   5.95000000000000E-01   0.00000000000000E+00   0.00000000000000E+00   0.00000000000000E+00
      0.00000000000000E+00   0.00000000000000E+00  -6.96400032472897E-17   0.00000000000000E+00   0.00000000000000E+00
      0.00000000000000E+00   0.00000000000000E+00  -7.81987375384232E-05  -1.23366602240347E-32  -7.81987375384232E-05
      8.60628766900972E-17   0.00000000000000E+00   0.00000000000000E+00   0.00000000000000E+00   0.00000000000000E+00
      0.00000000000000E+00   0.00000000000000E+00   0.00000000000000E+00  -1.44633418071660E-16   1.00000000000000E+00
      1.00000000000000E+00   0.00000000000000E+00   0.00000000000000E+00   7.81987375384207E-05  -1.24193075365930E-36
      7.81987375384207E-05   1.52697720461495E-16
      6.12000000000000E-01
      6.12000000000000E-01   6.12000000000000E-01   0.00000000000000E+00   0.00000000000000E+00   0.00000000000000E+00